<?xml version="1.0"?>
<VTKFile type="PolyData" version="0.1" byte_order="LittleEndian" header_type="UInt32" compressor="vtkZLibDataCompressor">
  <PolyData>
    <Piece NumberOfPoints="24" NumberOfVerts="0" NumberOfLines="0" NumberOfStrips="0" NumberOfPolys="14">
      <PointData Scalars="spokeLength" Vectors="spokeDirection">
        <DataArray type="Float64" Name="spokeDirection" NumberOfComponents="3" format="ascii" RangeMin="1" RangeMax="1">
          -0.40450079402 -0.88453150913 0.23234267151 -0.48730485936 -0.83415684845 0.25829503716
          -0.50757968166 -0.63026074971 0.58748127982 -0.39769545005 -0.64524098276 0.65230545236
          -0.56140781529 -0.41931677208 0.71343865159 -0.43661095406 -0.081806610949 0.89592329649
          -0.23190219222 -0.65856561326 0.71589992755 -0.47894693182 -0.80948589095 0.33962100768
          0.052590375435 -0.53348522587 0.84417282957 0.030669730234 -0.87310960582 0.48655830469
          0.08670060462 -0.72689195678 0.68125699139 0.079049677634 -0.60930825506 0.78898326901
          0.07147496051 -0.46676248398 0.88148971268 0.090714426794 -0.36480317185 0.92665502674
          -0.099030486125 -0.76796741835 0.63278669959 0.024518179803 -0.99948026183 0.020930004116
          0.46932256167 -0.27867438032 0.83790030604 0.53358886875 -0.60537905959 0.59059217177
          0.65905754699 -0.45126263181 0.60166866869 0.42931295064 -0.38151288609 0.81861975798
          0.51520927249 -0.40128427333 0.75731785765 0.59628021914 -0.51658777627 0.6144810572
          0.5960199632 -0.65547087099 0.46380830173 0.49806135735 -0.84678088944 -0.1868074131
        </DataArray>
        <DataArray type="Float64" Name="spokeLength" format="ascii" RangeMin="0.046568205037" RangeMax="0.11707011711">
          0.049143917714 0.046817070645 0.052825137708 0.053932887548 0.046568205037 0.061319423124
          0.061372861439 0.065313829019 0.053372515078 0.067662654221 0.060254106158 0.062021573211
          0.066737524076 0.10248711066 0.11707011711 0.079182843268 0.064908075801 0.077560958363
          0.062421212126 0.06038354947 0.068041841936 0.08261677104 0.093191239455 0.082759137008
        </DataArray>
      </PointData>
      <CellData>
      </CellData>
      <Points>
        <DataArray type="Float64" Name="Points" NumberOfComponents="3" format="ascii" RangeMin="0.34738790033" RangeMax="1.3032076002">
          0.16131609114 0.89887783564 0.89218225374 0.25276603513 0.84336402245 0.81089590364
          0.27890871941 0.74878939315 0.68640707584 0.28102717031 0.64899236106 0.59338205774
          0.28171390637 0.53470099625 0.51154134147 0.27600533059 0.37855392181 0.43366043922
          0.18459293383 0.26673787561 0.37991383883 0.19296173207 0.20456325662 0.27730399673
          0.22459166404 0.88678234362 0.91240770408 0.3367683649 0.85140930894 0.82338124603
          0.39001081965 0.77364019768 0.70364459726 0.4092425175 0.67456929665 0.61000617827
          0.42604670737 0.55432430678 0.53076325618 0.41206499882 0.42236951215 0.43430145119
          0.34431562968 0.28814431496 0.33686357543 0.27153111972 0.14869785197 0.15760124725
          0.34249665032 0.90430266377 0.87366056682 0.44062487341 0.87807812791 0.78638027324
          0.50643215058 0.81703480195 0.6877665956 0.54812256629 0.71387191496 0.5969416401
          0.56077784844 0.57407335266 0.51548830246 0.56642989145 0.39181376838 0.43622091065
          0.50624795654 0.23464245813 0.35059652147 0.39155491143 0.19152537312 0.24278445119
        </DataArray>
      </Points>
      <Verts>
        <DataArray type="Int64" Name="connectivity" format="ascii" RangeMin="0" RangeMax="17">
        </DataArray>
        <DataArray type="Int64" Name="offsets" format="ascii" RangeMin="19" RangeMax="19">
        </DataArray>
      </Verts>
      <Lines>
        <DataArray type="Int64" Name="connectivity" format="ascii" RangeMin="0" RangeMax="17">
        </DataArray>
        <DataArray type="Int64" Name="offsets" format="ascii" RangeMin="19" RangeMax="19">
        </DataArray>
      </Lines>
      <Strips>
        <DataArray type="Int64" Name="connectivity" format="ascii" RangeMin="0" RangeMax="17">
        </DataArray>
        <DataArray type="Int64" Name="offsets" format="ascii" RangeMin="19" RangeMax="19">
        </DataArray>
      </Strips>
      <Polys>
        <DataArray type="Int64" Name="connectivity" format="ascii" RangeMin="0" RangeMax="17">
          0 8 9 1 1 9
          10 2 2 10 11 3
          3 11 12 4 4 12
          13 5 5 13 14 6
          6 14 15 7 8 16
          17 9 9 17 18 10
          10 18 19 11 11 19
          20 12 12 20 21 13
          13 21 22 14 14 22
          23 15
        </DataArray>
        <DataArray type="Int64" Name="offsets" format="ascii" RangeMin="19" RangeMax="19">
          4 8 12 16 20 24
          28 32 36 40 44 48
          52 56
        </DataArray>
      </Polys>
    </Piece>
  </PolyData>
</VTKFile>
