<?xml version="1.0"?>
<VTKFile type="PolyData" version="0.1" byte_order="LittleEndian" header_type="UInt32" compressor="vtkZLibDataCompressor">
  <PolyData>
    <Piece NumberOfPoints="24" NumberOfVerts="0" NumberOfLines="0" NumberOfStrips="0" NumberOfPolys="14">
      <PointData Scalars="spokeLength" Vectors="spokeDirection">
        <DataArray type="Float64" Name="spokeDirection" NumberOfComponents="3" format="ascii" RangeMin="1" RangeMax="1">
          0.097427293452 0.92597781646 -0.36479172951 -0.38333050736 0.58342206349 -0.71601425821
          -0.36282942299 0.75306909391 -0.54885494405 -0.22520378887 0.61981434638 -0.75174026731
          -0.29242946018 0.45238673689 -0.84251483732 -0.57829984485 0.59178718562 -0.56156675149
          -0.59165261942 0.66607875344 -0.45418748568 -0.60234279351 0.56767455086 -0.56118514184
          -0.15744558472 0.98667396439 0.041053329306 -0.28501234662 0.73614384824 -0.61388940125
          -0.25293935864 0.6814659853 -0.68675016689 -0.23187372464 0.53768613202 -0.81063444243
          -0.2414412009 0.60565964851 -0.75821008743 -0.26067675704 0.60688750262 -0.75082300678
          -0.13109153176 0.6945120076 -0.70743768743 -0.13712649045 0.745668149 -0.65205470413
          -0.094848554491 0.99320159953 -0.067485808955 0.15159747253 0.9460653349 -0.2863190326
          0.34410897204 0.77582760978 -0.52884831026 0.2781484891 0.54448041913 -0.79131187985
          0.34787263592 0.35751295048 -0.86670013235 0.13406960049 0.56316052815 -0.81539901996
          0.2644710462 0.44267765484 -0.85679143298 0.47349822539 0.58419590491 -0.65917719562
        </DataArray>
        <DataArray type="Float64" Name="spokeLength" format="ascii" RangeMin="0.044066459759" RangeMax="0.095135050415">
          0.049795352583 0.047448289813 0.047261545149 0.052696521287 0.044066459759 0.057576957221
          0.080493056312 0.068314799527 0.052056786487 0.089567608378 0.07900321731 0.070172438984
          0.072436234319 0.095135050415 0.082949943714 0.071312808215 0.057497047918 0.075428825381
          0.060222858696 0.054001033666 0.065691137725 0.091521795203 0.085278443248 0.071745870613
        </DataArray>
      </PointData>
      <CellData>
      </CellData>
      <Points>
        <DataArray type="Float64" Name="Points" NumberOfComponents="3" format="ascii" RangeMin="0.34738790033" RangeMax="1.3032076002">
          0.16131609114 0.89887783564 0.89218225374 0.25276603513 0.84336402245 0.81089590364
          0.27890871941 0.74878939315 0.68640707584 0.28102717031 0.64899236106 0.59338205774
          0.28171390637 0.53470099625 0.51154134147 0.27600533059 0.37855392181 0.43366043922
          0.18459293383 0.26673787561 0.37991383883 0.19296173207 0.20456325662 0.27730399673
          0.22459166404 0.88678234362 0.91240770408 0.3367683649 0.85140930894 0.82338124603
          0.39001081965 0.77364019768 0.70364459726 0.4092425175 0.67456929665 0.61000617827
          0.42604670737 0.55432430678 0.53076325618 0.41206499882 0.42236951215 0.43430145119
          0.34431562968 0.28814431496 0.33686357543 0.27153111972 0.14869785197 0.15760124725
          0.34249665032 0.90430266377 0.87366056682 0.44062487341 0.87807812791 0.78638027324
          0.50643215058 0.81703480195 0.6877665956 0.54812256629 0.71387191496 0.5969416401
          0.56077784844 0.57407335266 0.51548830246 0.56642989145 0.39181376838 0.43622091065
          0.50624795654 0.23464245813 0.35059652147 0.39155491143 0.19152537312 0.24278445119
        </DataArray>
      </Points>
      <Verts>
        <DataArray type="Int64" Name="connectivity" format="ascii" RangeMin="0" RangeMax="17">
        </DataArray>
        <DataArray type="Int64" Name="offsets" format="ascii" RangeMin="19" RangeMax="19">
        </DataArray>
      </Verts>
      <Lines>
        <DataArray type="Int64" Name="connectivity" format="ascii" RangeMin="0" RangeMax="17">
        </DataArray>
        <DataArray type="Int64" Name="offsets" format="ascii" RangeMin="19" RangeMax="19">
        </DataArray>
      </Lines>
      <Strips>
        <DataArray type="Int64" Name="connectivity" format="ascii" RangeMin="0" RangeMax="17">
        </DataArray>
        <DataArray type="Int64" Name="offsets" format="ascii" RangeMin="19" RangeMax="19">
        </DataArray>
      </Strips>
      <Polys>
        <DataArray type="Int64" Name="connectivity" format="ascii" RangeMin="0" RangeMax="17">
          0 8 9 1 1 9
          10 2 2 10 11 3
          3 11 12 4 4 12
          13 5 5 13 14 6
          6 14 15 7 8 16
          17 9 9 17 18 10
          10 18 19 11 11 19
          20 12 12 20 21 13
          13 21 22 14 14 22
          23 15
        </DataArray>
        <DataArray type="Int64" Name="offsets" format="ascii" RangeMin="19" RangeMax="19">
          4 8 12 16 20 24
          28 32 36 40 44 48
          52 56
        </DataArray>
      </Polys>
    </Piece>
  </PolyData>
</VTKFile>
