<?xml version="1.0"?>
<VTKFile type="PolyData" version="0.1" byte_order="LittleEndian" header_type="UInt32" compressor="vtkZLibDataCompressor">
  <PolyData>
<<<<<<< HEAD
    <Piece NumberOfPoints="16" NumberOfVerts="0" NumberOfLines="16" NumberOfStrips="0" NumberOfPolys="0">
      <PointData Scalars="spokeLength" Vectors="spokeDirection">
        <DataArray type="Float64" Name="spokeDirection" NumberOfComponents="3" format="ascii" RangeMin="0.9999999999999999" RangeMax="1">
          -0.9498312500794539 -0.20144022664895897 0.23925390584088294 -0.9829336096759484 -0.1110113216940186 0.14669016812710153
          -0.9959325890149822 -0.05465023430251896 0.07163539647823729 -0.9955833497729382 0.07011864486467044 -0.062427312109666525
          -0.9141589714091206 0.2981177835699994 -0.27466190509702937 -0.8371973289939522 -0.3816598245735309 0.39170959987201487
          -0.6568875237643327 0.559746679719918 -0.5051558528467139 0.28258742090124256 -0.46357871016325886 0.8397851683804336
          0.1176564462656534 0.7605731034527697 -0.6385025567343955 0.7698275586872534 -0.27431192015948624 0.5762972326361103
          0.7386361524761932 0.5089514593618898 -0.44202380735495317 0.8565704126813738 -0.27437749496739805 0.43704017935914824
          0.936741771645076 -0.1837009431396738 0.2979409618445216 0.9978335442168684 -0.05135046917767678 0.04112599361517295
          0.9747929587227604 0.1385435617809222 -0.1748838732232975 0.9199797418676052 0.2934439321673601 -0.259861373096065
          <InformationKey name="L2_NORM_RANGE" location="vtkDataArray" length="2">
            <Value index="0">
              1
            </Value>
            <Value index="1">
              1
            </Value>
          </InformationKey>
        </DataArray>
        <DataArray type="Float64" Name="spokeLength" format="ascii" RangeMin="2.436802700263666" RangeMax="5.208783778587785">
          3.7070835474253596 4.262896007169188 3.229380116159271 2.5532480033738523 2.436802700263666 3.1825430967413606
          2.612448064420334 3.2103411295049993 2.911578505664982 5.208783778587785 3.198770845536357 5.182704835791873
          3.6496614472481808 2.9090316484380665 2.8125533586047893 3.130953920955495
=======
    <Piece NumberOfPoints="32" NumberOfVerts="0" NumberOfLines="1" NumberOfStrips="0" NumberOfPolys="0">
      <PointData Scalars="spokeLength" Vectors="spokeDirection">
        <DataArray type="Float64" Name="spokeDirection" NumberOfComponents="3" format="ascii" RangeMin="1" RangeMax="1">
          -0.95984455821 -0.24975590895 0.12775136014 -0.98306681395 -0.17409706755 0.05718260556
          -0.99600514472 -0.089242026313 -0.0031003925862 -0.99929075517 -0.021385599271 -0.030994237642
          -0.99816133291 0.031541378629 -0.051759974178 -0.98111963478 0.019688597326 -0.192397041
          -0.95744528225 0.11333553668 -0.26543094701 -0.93502861496 0.24880065984 -0.25262565361
          -0.86962171105 0.42074918218 -0.25831803142 -0.74041493463 0.55236847924 -0.38298144567
          -0.53874647028 0.64255618097 -0.54486126221 -0.30659580814 0.77493080999 -0.55270358255
          0.0041244304571 0.82377461268 -0.56690244009 0.28594205379 0.77618330125 -0.56194005439
          0.5014317606 0.72482896133 -0.4724290066 0.82000198019 0.49221398881 -0.29209954073
          0.97779174671 0.20882454945 0.0177653489 0.99169081542 0.093501642102 0.08835592525
          0.99392913038 0.047675396025 0.099156141529 0.99606002902 -0.0034564418593 0.088614172653
          0.99641250828 -0.020420305562 0.082128706699 0.99478130871 -0.0080935721087 0.10170861286
          0.99296498558 9.3633927421e-05 0.1184083132 0.99134697704 -0.010152724384 0.13087434163
          0.99634600436 -0.0073093938291 0.085095313356 0.95170183765 -0.15004113025 0.26786427803
          0.76967688141 -0.46798640901 0.43426514849 0.14798768965 -0.74468149855 0.6508065069
          -0.24213572326 -0.75529939756 0.60900994373 -0.57350738422 -0.65508743333 0.49188386326
          -0.7804983797 -0.49018229265 0.38799948358 -0.91349092672 -0.33271295105 0.23417177243
        </DataArray>
        <DataArray type="Float64" Name="spokeLength" format="ascii" RangeMin="0.11356177633" RangeMax="0.3273938187">
          0.11712653109 0.12512264747 0.14155752488 0.14880926635 0.14998964744 0.14675491796
          0.14412057178 0.14138205806 0.14756778766 0.13845452433 0.12046896073 0.11482975531
          0.12777839237 0.15041341071 0.20630696796 0.24379302207 0.21063654725 0.15493166424
          0.13363019063 0.12115884657 0.12482445527 0.13084807373 0.13410761056 0.13672623185
          0.17239739041 0.14318290213 0.24069181903 0.3273938187 0.21438327376 0.17892972251
          0.11912715568 0.11356177633
>>>>>>> master
        </DataArray>
      </PointData>
      <CellData>
      </CellData>
      <Points>
<<<<<<< HEAD
        <DataArray type="Float32" Name="Points" NumberOfComponents="3" format="ascii" RangeMin="165.06845478582065" RangeMax="185.4379470782241">
          -120.55736541748047 -123.0480728149414 66.03025817871094 -121.44461059570312 -119.96519470214844 63.605960845947266
          -121.22938537597656 -115.98832702636719 61.05898666381836 -120.23247528076172 -112.04427337646484 58.07658767700195
          -119.06632995605469 -108.5798568725586 55.2452278137207 -118.72242736816406 -124.98955535888672 68.33614349365234
          -117.74459838867188 -106.08741760253906 53.064178466796875 -116.28729248046875 -125.75322723388672 69.60192108154297
          -116.24323272705078 -105.10540008544922 52.1636962890625 -114.66110229492188 -125.2433090209961 69.31202697753906
          -114.98997497558594 -105.9438247680664 52.922645568847656 -114.66244506835938 -123.25653839111328 67.30712127685547
          -115.41065979003906 -119.98641204833984 64.08393096923828 -115.8426513671875 -115.98628234863281 60.41292953491211
          -115.30416870117188 -111.88884735107422 57.28947448730469 -114.6983413696289 -108.37225341796875 54.87616729736328
          <InformationKey name="L2_NORM_RANGE" location="vtkDataArray" length="2">
            <Value index="0">
              165.06845479
            </Value>
            <Value index="1">
              185.43794708
            </Value>
          </InformationKey>
        </DataArray>
      </Points>
      <Verts>
        <DataArray type="Int64" Name="connectivity" format="ascii" RangeMin="0" RangeMax="24">
        </DataArray>
        <DataArray type="Int64" Name="offsets" format="ascii" RangeMin="4" RangeMax="64">
        </DataArray>
      </Verts>
      <Lines>
        <DataArray type="Int64" Name="connectivity" format="ascii" RangeMin="0" RangeMax="24">
          0 1 1 2 2 3
          3 4 7 5 6 4
          9 7 8 6 11 9
          10 8 12 11 13 12
          14 13 15 14 5 0
          15 10
        </DataArray>
        <DataArray type="Int64" Name="offsets" format="ascii" RangeMin="4" RangeMax="64">
          2 4 6 8 10 12
          14 16 18 20 22 24
          26 28 30 32
        </DataArray>
      </Lines>
      <Strips>
        <DataArray type="Int64" Name="connectivity" format="ascii" RangeMin="0" RangeMax="24">
        </DataArray>
        <DataArray type="Int64" Name="offsets" format="ascii" RangeMin="4" RangeMax="64">
        </DataArray>
      </Strips>
      <Polys>
        <DataArray type="Int64" Name="connectivity" format="ascii" RangeMin="0" RangeMax="24">
        </DataArray>
        <DataArray type="Int64" Name="offsets" format="ascii" RangeMin="4" RangeMax="64">
=======
        <DataArray type="Float32" Name="Points" NumberOfComponents="3" format="ascii" RangeMin="0.030876012003" RangeMax="0.30580343479">
          -0.090740822256 -0.055125646293 0.0168336723 -0.093363143504 -0.032773461193 -0.0060260472819
          -0.095213897526 -0.010947417468 -0.027210537344 -0.095100238919 0.010759299621 -0.046784810722
          -0.093338184059 0.032320704311 -0.065779015422 -0.090724654496 0.054968323559 -0.085183568299
          -0.08761254698 0.081349432468 -0.10429985076 -0.08392778784 0.11326122284 -0.12119217962
          -0.079048283398 0.14924439788 -0.13600082695 -0.072034604847 0.1853544414 -0.15104860067
          -0.062319744378 0.21592152119 -0.16591842473 -0.050225209445 0.23599222302 -0.1770811826
          -0.036276459694 0.24330015481 -0.18167221546 -0.020436992869 0.23614759743 -0.17767003179
          -0.003168074647 0.21371459961 -0.16398745775 0.011882408522 0.17870882154 -0.143046543
          0.019096093252 0.14054918289 -0.12455588579 0.018314316869 0.10656888783 -0.11067693681
          0.01285369508 0.077628947794 -0.096060454845 0.0065313084051 0.05313808471 -0.079410791397
          0.0022700191475 0.031048849225 -0.062688156962 0.0010523063829 0.0093887895346 -0.04619261995
          0.0019711910281 -0.012571769767 -0.028131710365 0.0027646732051 -0.034595556557 -0.0067080990411
          0.0013868433889 -0.056858513504 0.018735719845 -0.0040050521493 -0.080400012434 0.045462846756
          -0.015451026149 -0.10436791182 0.067990578711 -0.033221814781 -0.12294066697 0.08325380832
          -0.0534331128 -0.12793773413 0.087273612618 -0.070224970579 -0.11845008284 0.079037703574
          -0.081351771951 -0.10025756806 0.062127333134 -0.087505176663 -0.07817876339 0.040344975889
        </DataArray>
      </Points>
      <Verts>
        <DataArray type="Int64" Name="connectivity" format="ascii" RangeMin="1e+299" RangeMax="-1e+299">
        </DataArray>
        <DataArray type="Int64" Name="offsets" format="ascii" RangeMin="1e+299" RangeMax="-1e+299">
        </DataArray>
      </Verts>
      <Lines>
        <DataArray type="Int64" Name="connectivity" format="ascii" RangeMin="0" RangeMax="31">
          0 1 2 3 4 5
          6 7 8 9 10 11
          12 13 14 15 16 17
          18 19 20 21 22 23
          24 25 26 27 28 29
          30 31 0
        </DataArray>
        <DataArray type="Int64" Name="offsets" format="ascii" RangeMin="33" RangeMax="33">
          33
        </DataArray>
      </Lines>
      <Strips>
        <DataArray type="Int64" Name="connectivity" format="ascii" RangeMin="0" RangeMax="31">
        </DataArray>
        <DataArray type="Int64" Name="offsets" format="ascii" RangeMin="33" RangeMax="33">
        </DataArray>
      </Strips>
      <Polys>
        <DataArray type="Int64" Name="connectivity" format="ascii" RangeMin="0" RangeMax="31">
        </DataArray>
        <DataArray type="Int64" Name="offsets" format="ascii" RangeMin="33" RangeMax="33">
>>>>>>> master
        </DataArray>
      </Polys>
    </Piece>
  </PolyData>
</VTKFile>
