<?xml version="1.0"?>
<VTKFile type="PolyData" version="0.1" byte_order="LittleEndian" header_type="UInt32" compressor="vtkZLibDataCompressor">
  <PolyData>
    <Piece NumberOfPoints="16" NumberOfVerts="0" NumberOfLines="16" NumberOfStrips="0" NumberOfPolys="0">
      <PointData Scalars="spokeLength" Vectors="spokeDirection">
        <DataArray type="Float64" Name="spokeDirection" NumberOfComponents="3" format="ascii" RangeMin="0.9999999999999999" RangeMax="1">
          -0.9498312500794539 -0.20144022664895897 0.23925390584088294 -0.9829336096759484 -0.1110113216940186 0.14669016812710153
          -0.9959325890149822 -0.05465023430251896 0.07163539647823729 -0.9955833497729382 0.07011864486467044 -0.062427312109666525
          -0.9141589714091206 0.2981177835699994 -0.27466190509702937 -0.8371973289939522 -0.3816598245735309 0.39170959987201487
          -0.6568875237643327 0.559746679719918 -0.5051558528467139 0.28258742090124256 -0.46357871016325886 0.8397851683804336
          0.1176564462656534 0.7605731034527697 -0.6385025567343955 0.7698275586872534 -0.27431192015948624 0.5762972326361103
          0.7386361524761932 0.5089514593618898 -0.44202380735495317 0.8565704126813738 -0.27437749496739805 0.43704017935914824
          0.936741771645076 -0.1837009431396738 0.2979409618445216 0.9978335442168684 -0.05135046917767678 0.04112599361517295
          0.9747929587227604 0.1385435617809222 -0.1748838732232975 0.9199797418676052 0.2934439321673601 -0.259861373096065
          <InformationKey name="L2_NORM_RANGE" location="vtkDataArray" length="2">
            <Value index="0">
              1
            </Value>
            <Value index="1">
              1
            </Value>
          </InformationKey>
        </DataArray>
        <DataArray type="Float64" Name="spokeLength" format="ascii" RangeMin="2.436802700263666" RangeMax="5.208783778587785">
          3.7070835474253596 4.262896007169188 3.229380116159271 2.5532480033738523 2.436802700263666 3.1825430967413606
          2.612448064420334 3.2103411295049993 2.911578505664982 5.208783778587785 3.198770845536357 5.182704835791873
          3.6496614472481808 2.9090316484380665 2.8125533586047893 3.130953920955495
        </DataArray>
      </PointData>
      <CellData>
      </CellData>
      <Points>
        <DataArray type="Float32" Name="Points" NumberOfComponents="3" format="ascii" RangeMin="165.06845478582065" RangeMax="185.4379470782241">
          -120.55736541748047 -123.0480728149414 66.03025817871094 -121.44461059570312 -119.96519470214844 63.605960845947266
          -121.22938537597656 -115.98832702636719 61.05898666381836 -120.23247528076172 -112.04427337646484 58.07658767700195
          -119.06632995605469 -108.5798568725586 55.2452278137207 -118.72242736816406 -124.98955535888672 68.33614349365234
          -117.74459838867188 -106.08741760253906 53.064178466796875 -116.28729248046875 -125.75322723388672 69.60192108154297
          -116.24323272705078 -105.10540008544922 52.1636962890625 -114.66110229492188 -125.2433090209961 69.31202697753906
          -114.98997497558594 -105.9438247680664 52.922645568847656 -114.66244506835938 -123.25653839111328 67.30712127685547
          -115.41065979003906 -119.98641204833984 64.08393096923828 -115.8426513671875 -115.98628234863281 60.41292953491211
          -115.30416870117188 -111.88884735107422 57.28947448730469 -114.6983413696289 -108.37225341796875 54.87616729736328
          <InformationKey name="L2_NORM_RANGE" location="vtkDataArray" length="2">
            <Value index="0">
              165.06845479
            </Value>
            <Value index="1">
              185.43794708
            </Value>
          </InformationKey>
        </DataArray>
      </Points>
      <Verts>
        <DataArray type="Int64" Name="connectivity" format="ascii" RangeMin="0" RangeMax="24">
        </DataArray>
        <DataArray type="Int64" Name="offsets" format="ascii" RangeMin="4" RangeMax="64">
        </DataArray>
      </Verts>
      <Lines>
        <DataArray type="Int64" Name="connectivity" format="ascii" RangeMin="0" RangeMax="24">
          0 1 1 2 2 3
          3 4 7 5 6 4
          9 7 8 6 11 9
          10 8 12 11 13 12
          14 13 15 14 5 0
          15 10
        </DataArray>
        <DataArray type="Int64" Name="offsets" format="ascii" RangeMin="4" RangeMax="64">
          2 4 6 8 10 12
          14 16 18 20 22 24
          26 28 30 32
        </DataArray>
      </Lines>
      <Strips>
        <DataArray type="Int64" Name="connectivity" format="ascii" RangeMin="0" RangeMax="24">
        </DataArray>
        <DataArray type="Int64" Name="offsets" format="ascii" RangeMin="4" RangeMax="64">
        </DataArray>
      </Strips>
      <Polys>
        <DataArray type="Int64" Name="connectivity" format="ascii" RangeMin="0" RangeMax="24">
        </DataArray>
        <DataArray type="Int64" Name="offsets" format="ascii" RangeMin="4" RangeMax="64">
        </DataArray>
      </Polys>
    </Piece>
  </PolyData>
</VTKFile>
