<?xml version="1.0"?>
<VTKFile type="PolyData" version="0.1" byte_order="LittleEndian" header_type="UInt32" compressor="vtkZLibDataCompressor">
  <PolyData>
    <Piece NumberOfPoints="32" NumberOfVerts="0" NumberOfLines="1" NumberOfStrips="0" NumberOfPolys="0">
      <PointData Scalars="spokeLength" Vectors="spokeDirection">
        <DataArray type="Float64" Name="spokeDirection" NumberOfComponents="3" format="ascii" RangeMin="1" RangeMax="1">
          -0.95984455821 -0.24975590895 0.12775136014 -0.98306681395 -0.17409706755 0.05718260556
          -0.99600514472 -0.089242026313 -0.0031003925862 -0.99929075517 -0.021385599271 -0.030994237642
          -0.99816133291 0.031541378629 -0.051759974178 -0.98111963478 0.019688597326 -0.192397041
          -0.95744528225 0.11333553668 -0.26543094701 -0.93502861496 0.24880065984 -0.25262565361
          -0.86962171105 0.42074918218 -0.25831803142 -0.74041493463 0.55236847924 -0.38298144567
          -0.53874647028 0.64255618097 -0.54486126221 -0.30659580814 0.77493080999 -0.55270358255
          0.0041244304571 0.82377461268 -0.56690244009 0.28594205379 0.77618330125 -0.56194005439
          0.5014317606 0.72482896133 -0.4724290066 0.82000198019 0.49221398881 -0.29209954073
          0.97779174671 0.20882454945 0.0177653489 0.99169081542 0.093501642102 0.08835592525
          0.99392913038 0.047675396025 0.099156141529 0.99606002902 -0.0034564418593 0.088614172653
          0.99641250828 -0.020420305562 0.082128706699 0.99478130871 -0.0080935721087 0.10170861286
          0.99296498558 9.3633927421e-05 0.1184083132 0.99134697704 -0.010152724384 0.13087434163
          0.99634600436 -0.0073093938291 0.085095313356 0.95170183765 -0.15004113025 0.26786427803
          0.76967688141 -0.46798640901 0.43426514849 0.14798768965 -0.74468149855 0.6508065069
          -0.24213572326 -0.75529939756 0.60900994373 -0.57350738422 -0.65508743333 0.49188386326
          -0.7804983797 -0.49018229265 0.38799948358 -0.91349092672 -0.33271295105 0.23417177243
        </DataArray>
        <DataArray type="Float64" Name="spokeLength" format="ascii" RangeMin="0.11356177633" RangeMax="0.3273938187">
          0.11712653109 0.12512264747 0.14155752488 0.14880926635 0.14998964744 0.14675491796
          0.14412057178 0.14138205806 0.14756778766 0.13845452433 0.12046896073 0.11482975531
          0.12777839237 0.15041341071 0.20630696796 0.24379302207 0.21063654725 0.15493166424
          0.13363019063 0.12115884657 0.12482445527 0.13084807373 0.13410761056 0.13672623185
          0.17239739041 0.14318290213 0.24069181903 0.3273938187 0.21438327376 0.17892972251
          0.11912715568 0.11356177633
        </DataArray>
      </PointData>
      <CellData>
      </CellData>
      <Points>
        <DataArray type="Float32" Name="Points" NumberOfComponents="3" format="ascii" RangeMin="0.030876012003" RangeMax="0.30580343479">
          -0.090740822256 -0.055125646293 0.0168336723 -0.093363143504 -0.032773461193 -0.0060260472819
          -0.095213897526 -0.010947417468 -0.027210537344 -0.095100238919 0.010759299621 -0.046784810722
          -0.093338184059 0.032320704311 -0.065779015422 -0.090724654496 0.054968323559 -0.085183568299
          -0.08761254698 0.081349432468 -0.10429985076 -0.08392778784 0.11326122284 -0.12119217962
          -0.079048283398 0.14924439788 -0.13600082695 -0.072034604847 0.1853544414 -0.15104860067
          -0.062319744378 0.21592152119 -0.16591842473 -0.050225209445 0.23599222302 -0.1770811826
          -0.036276459694 0.24330015481 -0.18167221546 -0.020436992869 0.23614759743 -0.17767003179
          -0.003168074647 0.21371459961 -0.16398745775 0.011882408522 0.17870882154 -0.143046543
          0.019096093252 0.14054918289 -0.12455588579 0.018314316869 0.10656888783 -0.11067693681
          0.01285369508 0.077628947794 -0.096060454845 0.0065313084051 0.05313808471 -0.079410791397
          0.0022700191475 0.031048849225 -0.062688156962 0.0010523063829 0.0093887895346 -0.04619261995
          0.0019711910281 -0.012571769767 -0.028131710365 0.0027646732051 -0.034595556557 -0.0067080990411
          0.0013868433889 -0.056858513504 0.018735719845 -0.0040050521493 -0.080400012434 0.045462846756
          -0.015451026149 -0.10436791182 0.067990578711 -0.033221814781 -0.12294066697 0.08325380832
          -0.0534331128 -0.12793773413 0.087273612618 -0.070224970579 -0.11845008284 0.079037703574
          -0.081351771951 -0.10025756806 0.062127333134 -0.087505176663 -0.07817876339 0.040344975889
        </DataArray>
      </Points>
      <Verts>
        <DataArray type="Int64" Name="connectivity" format="ascii" RangeMin="1e+299" RangeMax="-1e+299">
        </DataArray>
        <DataArray type="Int64" Name="offsets" format="ascii" RangeMin="1e+299" RangeMax="-1e+299">
        </DataArray>
      </Verts>
      <Lines>
        <DataArray type="Int64" Name="connectivity" format="ascii" RangeMin="0" RangeMax="31">
          0 1 2 3 4 5
          6 7 8 9 10 11
          12 13 14 15 16 17
          18 19 20 21 22 23
          24 25 26 27 28 29
          30 31 0
        </DataArray>
        <DataArray type="Int64" Name="offsets" format="ascii" RangeMin="33" RangeMax="33">
          33
        </DataArray>
      </Lines>
      <Strips>
        <DataArray type="Int64" Name="connectivity" format="ascii" RangeMin="0" RangeMax="31">
        </DataArray>
        <DataArray type="Int64" Name="offsets" format="ascii" RangeMin="33" RangeMax="33">
        </DataArray>
      </Strips>
      <Polys>
        <DataArray type="Int64" Name="connectivity" format="ascii" RangeMin="0" RangeMax="31">
        </DataArray>
        <DataArray type="Int64" Name="offsets" format="ascii" RangeMin="33" RangeMax="33">
        </DataArray>
      </Polys>
    </Piece>
  </PolyData>
</VTKFile>
