<?xml version="1.0"?>
<VTKFile type="PolyData" version="0.1" byte_order="LittleEndian" header_type="UInt32" compressor="vtkZLibDataCompressor">
  <PolyData>
    <Piece NumberOfPoints="18" NumberOfVerts="0" NumberOfLines="1" NumberOfStrips="0" NumberOfPolys="0">
      <PointData Scalars="spokeLength" Vectors="spokeDirection">
        <DataArray type="Float64" Name="spokeDirection" NumberOfComponents="3" format="ascii" RangeMin="1" RangeMax="1">
          -0.8555697108648285 0.20260410065905013 -0.4763948448994925 -0.9072614553652032 -0.25404449056790374 -0.3351686865157719
          -0.9996941938677859 0.024715440253330112 0.000815941248990625 -0.9930355248855168 -0.08689855692558258 -0.07955555995401963
          -0.9969254648191309 -0.019166538507395525 0.07597539994501058 -0.8717110459346387 0.2850557103626074 0.3985763344520187
          -0.7791489769409505 -0.31830275619218484 0.5400094694839422 -0.9631992849047881 -0.2115743947553282 -0.1657812204166121
          -0.16769105916113006 -0.5620308647411111 -0.8099388963099484 0.7542091183813717 -0.3676374166983012 -0.5440692378675656
          0.8974056038137467 -0.1464697858214623 -0.41618479559577837 0.9505748120465944 -0.0033050362952808023 -0.3104780240816871
          0.9940699536606051 0.10247994833997985 -0.03637014458917376 0.9573283436875716 0.2868720283914608 -0.035026871098912594
          0.9147445453307907 0.37776255126036634 -0.14331040315630988 0.7398566658188239 0.560466810625642 0.3721411939446827
          0.26964482987110433 0.6088274522444921 0.7460702373887219 -0.11395571654945037 0.01763930443288421 0.9933292251840904
          <InformationKey name="L2_NORM_RANGE" location="vtkDataArray" length="2">
            <Value index="0">
              1
            </Value>
            <Value index="1">
              1
            </Value>
          </InformationKey>
        </DataArray>
        <DataArray type="Float64" Name="spokeLength" format="ascii" RangeMin="0.04049142971809571" RangeMax="0.1289479472000453">
          0.04049142971809571 0.1289479472000453 0.12299421042227346 0.12310866287248262 0.11085725673192909 0.08662357903837033
          0.06729331564540399 0.058112105051957866 0.08807600080320623 0.11609863237466463 0.10035091511751718 0.10763621859453056
          0.0967597751541885 0.06997955855625554 0.06918393081428828 0.0869356067567937 0.07591651591678257 0.07394444680696013
        </DataArray>
      </PointData>
      <CellData>
      </CellData>
      <Points>
        <DataArray type="Float32" Name="Points" NumberOfComponents="3" format="ascii" RangeMin="0.33148951518956216" RangeMax="1.3294868042303165">
          0.17386077344417572 0.8945845365524292 0.8915387988090515 0.22383970022201538 0.8517920970916748 0.8003916144371033
          0.24238333106040955 0.7562209963798523 0.6977494359016418 0.2526428699493408 0.6462242007255554 0.5943543314933777
          0.2413266897201538 0.539065420627594 0.4867328405380249 0.23700211942195892 0.4004438817501068 0.42086875438690186
          0.1746647208929062 0.2445622831583023 0.40552476048469543 0.17246468365192413 0.17743542790412903 0.2708190679550171
          0.27962586283683777 0.10554597526788712 0.1433691829442978 0.42178183794021606 0.1754341423511505 0.21222150325775146
          0.5231413841247559 0.24775637686252594 0.3174856901168823 0.5801067352294922 0.3962956964969635 0.42764511704444885
          0.5868409872055054 0.5707117319107056 0.5239014625549316 0.584680438041687 0.7167251110076904 0.6091903448104858
          0.5371938943862915 0.8150629997253418 0.7040978670120239 0.45870545506477356 0.8938261866569519 0.8038545250892639
          0.3538767099380493 0.9107062220573425 0.9016211032867432 0.23600877821445465 0.881619930267334 0.9446640014648438
          <InformationKey name="L2_NORM_RANGE" location="vtkDataArray" length="2">
            <Value index="0">
              0.33148951519
            </Value>
            <Value index="1">
              1.3294868042
            </Value>
          </InformationKey>
        </DataArray>
      </Points>
      <Verts>
        <DataArray type="Int64" Name="connectivity" format="ascii" RangeMin="1e+299" RangeMax="-1e+299">
        </DataArray>
        <DataArray type="Int64" Name="offsets" format="ascii" RangeMin="1e+299" RangeMax="-1e+299">
        </DataArray>
      </Verts>
      <Lines>
        <DataArray type="Int64" Name="connectivity" format="ascii" RangeMin="0" RangeMax="17">
          0 1 2 3 4 5
          6 7 8 9 10 11
          12 13 14 15 16 17
          0
        </DataArray>
        <DataArray type="Int64" Name="offsets" format="ascii" RangeMin="19" RangeMax="19">
          19
        </DataArray>
      </Lines>
      <Strips>
        <DataArray type="Int64" Name="connectivity" format="ascii" RangeMin="0" RangeMax="17">
        </DataArray>
        <DataArray type="Int64" Name="offsets" format="ascii" RangeMin="19" RangeMax="19">
        </DataArray>
      </Strips>
      <Polys>
        <DataArray type="Int64" Name="connectivity" format="ascii" RangeMin="0" RangeMax="17">
        </DataArray>
        <DataArray type="Int64" Name="offsets" format="ascii" RangeMin="19" RangeMax="19">
        </DataArray>
      </Polys>
    </Piece>
  </PolyData>
</VTKFile>
