<?xml version="1.0"?>
<VTKFile type="PolyData" version="0.1" byte_order="LittleEndian" header_type="UInt32" compressor="vtkZLibDataCompressor">
  <PolyData>
    <Piece NumberOfPoints="81" NumberOfVerts="0" NumberOfLines="0" NumberOfStrips="0" NumberOfPolys="64">
      <PointData Scalars="spokeLength" Vectors="spokeDirection">
        <DataArray type="Float64" Name="spokeDirection" NumberOfComponents="3" format="ascii" RangeMin="1" RangeMax="1">
          -0.86953589442 0.081982771818 0.48701761101 -0.87884812499 0.17457195347 0.4440164482
          -0.90881500713 0.19892995076 0.36671808997 -0.91900538562 0.23567440032 0.31604853777
          -0.91530761462 0.28730859405 0.28225120442 -0.91897546645 0.32480547144 0.22357436745
          -0.91648608232 0.36526995356 0.16319044683 -0.89609974756 0.42087167151 0.14096906944
          -0.84734015839 0.51134156141 0.14333339998 -0.84441849933 -0.024052030391 0.53514381042
          -0.73216627976 0.29356461687 0.61461561525 -0.75253967522 0.33205823541 0.56870147311
          -0.7654586026 0.36504487658 0.52992015038 -0.72301567654 0.45975945029 0.51562542543
          -0.73256725195 0.49263300544 0.46974242231 -0.75141714316 0.50706389849 0.42220667903
          -0.75273167068 0.54348112304 0.37151487299 -0.73044538499 0.66437457248 0.15829076725
          -0.70081107319 -0.07903325924 0.70895527618 -0.63509663406 0.32426528604 0.70107366922
          -0.63014032109 0.39103949684 0.67082880651 -0.62288660443 0.43972908151 0.64703215755
          -0.56927201352 0.53057539039 0.62802796891 -0.56291042628 0.57363470485 0.59504208034
          -0.57239865922 0.58503516498 0.57453775391 -0.58173175478 0.63170875762 0.51237897207
          -0.53964605339 0.83758609595 0.085039219984 -0.53573980596 -0.18673164008 0.82347686968
          -0.51369628164 0.34374026942 0.78610352843 -0.50092696101 0.42599834399 0.75339072907
          -0.47864298405 0.49337592812 0.72627893221 -0.4346932536 0.5707901251 0.69659199562
          -0.40371106977 0.63025278248 0.66317328227 -0.39661133993 0.66218041911 0.63578025889
          -0.40002871194 0.71519416022 0.57312681216 -0.34489863018 0.93820890198 0.028442769458
          -0.30039660897 -0.27661307562 0.91282368709 -0.33768631093 0.34636537441 0.87521367838
          -0.32787291441 0.43946682136 0.8362824074 -0.30138262801 0.52120123863 0.79844710557
          -0.25476701128 0.60759755653 0.75227586646 -0.20444017621 0.68720270337 0.69710591651
          -0.19383155853 0.73416868582 0.65071166248 -0.20103626216 0.77989988225 0.59273990499
          -0.14400730825 0.98948069046 0.013778910703 0.073382820879 -0.37279019714 0.92500942185
          -0.047204041627 0.31413521352 0.94820401079 -0.05736897063 0.41244962707 0.90917220939
          -0.027774820166 0.50285150104 0.86392645941 0.013613103293 0.62310019688 0.782023547
          0.10440111275 0.73281548161 0.67237034257 0.072682668382 0.77309663004 0.63011017317
          0.027511976887 0.80554415881 0.59189669651 0.10527422881 0.99370067681 0.038422671001
          0.5743605891 -0.28132581192 0.76874293573 0.39398110915 0.22232983788 0.89182303672
          0.35719254706 0.31157204891 0.88053185216 0.37122212583 0.40116981863 0.837410837
          0.40853691573 0.56699739701 0.71527025681 0.50078009865 0.677529572 0.53867705712
          0.36541271665 0.72998658649 0.57757521594 0.27887829438 0.76967302659 0.57430856607
          0.46356395748 0.84663006419 0.26139240949 0.78592582533 -0.074663289401 0.61379637527
          0.7584228452 0.12443535099 0.63977389076 0.77148338464 0.15371333536 0.61740229815
          0.76976546058 0.26499793123 0.58072130333 0.73585740869 0.41302671423 0.53658438983
          0.70014408311 0.51438334739 0.49518484914 0.60770684076 0.59830437072 0.5222300984
          0.5377262241 0.65593116444 0.52972145079 0.65774416007 0.6841153012 0.31521242766
          0.88276644046 0.023497486985 0.46922412523 0.92269086832 0.099497706634 0.37248056041
          0.93559527948 0.14311956616 0.32276657633 0.9365992587 0.16115768785 0.31114309932
          0.92707060719 0.20893617539 0.311264781 0.90443261038 0.27639490225 0.32497309318
          0.86110322784 0.3564853532 0.36251817052 0.81127490306 0.427652575 0.39868070778
          0.77304327263 0.49756075929 0.39349382392
        </DataArray>
        <DataArray type="Float64" Name="spokeLength" format="ascii" RangeMin="0.06680973901" RangeMax="0.19199054927">
          0.15622256894 0.1554089051 0.16683861769 0.17279705213 0.1718422029 0.1670209784
          0.17014364798 0.17514312809 0.16936359113 0.16926073297 0.15583406527 0.16252032705
          0.16542991449 0.1572607867 0.1569587646 0.15680693509 0.15710080441 0.154272822
          0.15715448026 0.1474125303 0.15024154213 0.15010531719 0.14358454312 0.14398963739
          0.14114028179 0.144148608 0.15083376174 0.16451569781 0.13087845237 0.1307100246
          0.12875897955 0.12665623973 0.12864676599 0.13174769011 0.1397127676 0.14764544127
          0.17187326774 0.1095765587 0.10746609702 0.10430912235 0.1050834003 0.11046693438
          0.12199640482 0.13699355666 0.14398817503 0.16263780023 0.088954288518 0.085873086033
          0.079901858073 0.083088421688 0.092390407395 0.11193660956 0.13415626298 0.14563146692
          0.129250681 0.079206594304 0.074079532494 0.06680973901 0.07278495087 0.086438610959
          0.1084261888 0.13292903709 0.15662019848 0.12351302966 0.091274623878 0.087219895893
          0.084440029065 0.085841290924 0.094461153791 0.11093317919 0.13568957211 0.18367658755
          0.12787974664 0.12104318133 0.12659086671 0.1218925377 0.11380643903 0.11324215301
          0.1240924178 0.1478022 0.19199054927
        </DataArray>
      </PointData>
      <CellData>
      </CellData>
      <Points>
        <DataArray type="Float32" Name="Points" NumberOfComponents="3" format="ascii" RangeMin="0.041998736233" RangeMax="0.27048903428">
          -0.063147306442 -0.047921370715 0.0093717090786 -0.064640000463 -0.028290312737 -0.011140867136
          -0.065538287163 -0.0084369704127 -0.030392454937 -0.065213441849 0.011735390872 -0.04804681614
          -0.06354381144 0.032089427114 -0.064886517823 -0.060715086758 0.053345683962 -0.081910096109
          -0.057082343847 0.077122285962 -0.098883517087 -0.053258650005 0.10462732613 -0.11422272772
          -0.049736928195 0.13488389552 -0.12738615274 -0.061449177563 -0.067305982113 0.029606884345
          -0.060034543276 -0.028287025169 -0.011350886896 -0.060744747519 -0.0084822773933 -0.030584445223
          -0.060376171023 0.011661288328 -0.048143800348 -0.058686867356 0.032003507018 -0.064821399748
          -0.055789150298 0.053234662861 -0.0816661641 -0.052082743496 0.076919689775 -0.098488122225
          -0.048319116235 0.10424420983 -0.11370375007 -0.046462923288 0.16488130391 -0.13973507285
          -0.059078201652 -0.084606036544 0.047100059688 -0.055436678231 -0.028282448649 -0.011578458361
          -0.055984728038 -0.0085255810991 -0.030785594136 -0.055589985102 0.011587332934 -0.048246923834
          -0.05388410762 0.031910665333 -0.064766325057 -0.050910476595 0.053106676787 -0.081439785659
          -0.047117620707 0.076691940427 -0.098113484681 -0.043397188187 0.10383246839 -0.11319897324
          -0.042982172221 0.1904373318 -0.15143638849 -0.055280823261 -0.096958436072 0.059190455824
          -0.050842016935 -0.02827411145 -0.011820618063 -0.051250834018 -0.0085637094453 -0.030990783125
          -0.050845202059 0.011516739614 -0.048349775374 -0.049125861377 0.031813852489 -0.064714387059
          -0.046071644872 0.052963726223 -0.08122356236 -0.042182296515 0.076438963413 -0.097752347589
          -0.038490299135 0.10339035839 -0.11270304024 -0.038844432682 0.20731782913 -0.16009625793
          -0.049831785262 -0.10177755356 0.063871353865 -0.046246238053 -0.028259085491 -0.012074178085
          -0.046535316855 -0.0085935322568 -0.031194929034 -0.046131663024 0.011452653445 -0.04844583571
          -0.044402226806 0.03171601519 -0.064658559859 -0.041265174747 0.052807867527 -0.081009991467
          -0.037272330374 0.076161079109 -0.09739703685 -0.033596288413 0.10291645676 -0.11221019179
          -0.03382050246 0.21305093169 -0.16318637133 -0.043231546879 -0.097641058266 0.060157224536
          -0.04163280502 -0.028547823429 -0.012012575753 -0.041825588793 -0.0088108703494 -0.031212147325
          -0.041442602873 0.011301497929 -0.048450008035 -0.039703018963 0.031619910151 -0.064591906965
          -0.036464277655 0.05274599418 -0.080870434642 -0.032338041812 0.076106958091 -0.097197197378
          -0.028655672446 0.10286420584 -0.11193148792 -0.027830325067 0.20680487156 -0.15953603387
          -0.036681171507 -0.085508204997 0.048554323614 -0.036995675415 -0.028824858367 -0.011954788119
          -0.037110127509 -0.0090143810958 -0.031219175085 -0.03676122427 0.011162557639 -0.048435743898
          -0.035017903894 0.031527996063 -0.064507655799 -0.031677827239 0.052674233913 -0.080717682838
          -0.02741105482 0.07602635026 -0.096985407174 -0.023707699031 0.10277290642 -0.11163838953
          -0.02126827091 0.18898384273 -0.14967525005 -0.031589783728 -0.068233132362 0.030714636669
          -0.032329790294 -0.029086824507 -0.011897988617 -0.032379936427 -0.0092012370005 -0.031211609021
          -0.032076213509 0.011038292199 -0.048397369683 -0.030336469412 0.03144229576 -0.064399518073
          -0.026898512617 0.052593767643 -0.080544807017 -0.022487642244 0.075919084251 -0.096754074097
          -0.018750876188 0.102641128 -0.11132448912 -0.015606242232 0.1623557359 -0.13649894297
          -0.028667360544 -0.048933181912 0.0094582755119 -0.027630379423 -0.029330600053 -0.011839420535
          -0.02762597613 -0.009368846193 -0.031185464934 -0.027376111597 0.010930711403 -0.048329778016
          -0.025648279116 0.031364236027 -0.064261764288 -0.022119259462 0.052505277097 -0.080345317721
          -0.017564525828 0.07578510046 -0.096495985985 -0.01378412731 0.10246775299 -0.11098369211
          -0.012826806866 0.13206385076 -0.12361492217
        </DataArray>
      </Points>
      <Verts>
        <DataArray type="Int64" Name="connectivity" format="ascii" RangeMin="1e+299" RangeMax="-1e+299">
        </DataArray>
        <DataArray type="Int64" Name="offsets" format="ascii" RangeMin="1e+299" RangeMax="-1e+299">
        </DataArray>
      </Verts>
      <Lines>
        <DataArray type="Int64" Name="connectivity" format="ascii" RangeMin="1e+299" RangeMax="-1e+299">
        </DataArray>
        <DataArray type="Int64" Name="offsets" format="ascii" RangeMin="1e+299" RangeMax="-1e+299">
        </DataArray>
      </Lines>
      <Strips>
        <DataArray type="Int64" Name="connectivity" format="ascii" RangeMin="1e+299" RangeMax="-1e+299">
        </DataArray>
        <DataArray type="Int64" Name="offsets" format="ascii" RangeMin="1e+299" RangeMax="-1e+299">
        </DataArray>
      </Strips>
      <Polys>
        <DataArray type="Int64" Name="connectivity" format="ascii" RangeMin="0" RangeMax="80">
          0 9 10 1 1 10
          11 2 2 11 12 3
          3 12 13 4 4 13
          14 5 5 14 15 6
          6 15 16 7 7 16
          17 8 9 18 19 10
          10 19 20 11 11 20
          21 12 12 21 22 13
          13 22 23 14 14 23
          24 15 15 24 25 16
          16 25 26 17 18 27
          28 19 19 28 29 20
          20 29 30 21 21 30
          31 22 22 31 32 23
          23 32 33 24 24 33
          34 25 25 34 35 26
          27 36 37 28 28 37
          38 29 29 38 39 30
          30 39 40 31 31 40
          41 32 32 41 42 33
          33 42 43 34 34 43
          44 35 36 45 46 37
          37 46 47 38 38 47
          48 39 39 48 49 40
          40 49 50 41 41 50
          51 42 42 51 52 43
          43 52 53 44 45 54
          55 46 46 55 56 47
          47 56 57 48 48 57
          58 49 49 58 59 50
          50 59 60 51 51 60
          61 52 52 61 62 53
          54 63 64 55 55 64
          65 56 56 65 66 57
          57 66 67 58 58 67
          68 59 59 68 69 60
          60 69 70 61 61 70
          71 62 63 72 73 64
          64 73 74 65 65 74
          75 66 66 75 76 67
          67 76 77 68 68 77
          78 69 69 78 79 70
          70 79 80 71
        </DataArray>
        <DataArray type="Int64" Name="offsets" format="ascii" RangeMin="4" RangeMax="256">
          4 8 12 16 20 24
          28 32 36 40 44 48
          52 56 60 64 68 72
          76 80 84 88 92 96
          100 104 108 112 116 120
          124 128 132 136 140 144
          148 152 156 160 164 168
          172 176 180 184 188 192
          196 200 204 208 212 216
          220 224 228 232 236 240
          244 248 252 256
        </DataArray>
      </Polys>
    </Piece>
  </PolyData>
</VTKFile>
