<?xml version="1.0"?>
<VTKFile type="PolyData" version="0.1" byte_order="LittleEndian" header_type="UInt32" compressor="vtkZLibDataCompressor">
  <PolyData>
    <Piece NumberOfPoints="24" NumberOfVerts="0" NumberOfLines="0" NumberOfStrips="0" NumberOfPolys="14">
      <PointData Scalars="spokeLength" Vectors="spokeDirection">
        <DataArray type="Float64" Name="spokeDirection" NumberOfComponents="3" format="ascii" RangeMin="1" RangeMax="1">
          -0.4642959889398689 -0.8754856158225176 0.1339931757300217 -0.6008763383537847 -0.7571546155486639 0.2562508812861005
          -0.7092205838442752 -0.4581278503312178 0.5358404951125688 -0.5001319237994828 -0.6975034185865131 0.513183241987456
          -0.5348795220133772 -0.6739191369881934 0.5096438891341972 -0.09507717101763377 -0.21104111330096692 0.9728422174473988
          -0.024045737705719664 -0.6104550833581082 0.7916857922815296 -0.2741089335754506 -0.8650290158746123 0.4202250518818804
          0.08501768311582769 -0.4264275218549732 0.9005173858189764 -0.04479187342550683 -0.9361953421107074 0.3486143563957873
          -0.20673027091240473 -0.7368384997616991 0.6436859640829622 -0.3806817862325922 -0.8253633536504049 0.4169612836723809
          -0.38981542529439867 -0.23760702511298334 0.8897116588083497 -0.17362484467051095 -0.14897411914640768 0.9734788776022276
          -0.3039680247346477 -0.8095671731234731 0.5021995939263443 0.021593170691137423 -0.997565102243774 -0.06631441596570109
          0.3843213904858708 -0.23296203481420574 0.8933228750850566 0.4939822338198772 -0.5462630007656247 0.6764453316158368
          0.5475176839992567 -0.4147107354115975 0.7268007922687358 0.29200937514617153 -0.4405255148942654 0.8489215485272387
          0.4525776079987522 -0.4278147721055159 0.7823988941112029 0.5230166042809318 -0.47345824353799065 0.7087248572417677
          0.5428878555603237 -0.6702589240387006 0.5059898724595153 0.5083566542592912 -0.8559947070107157 -0.09405622594989982
          <InformationKey name="L2_NORM_RANGE" location="vtkDataArray" length="2">
            <Value index="0">
              1
            </Value>
            <Value index="1">
              1
            </Value>
          </InformationKey>
        </DataArray>
        <DataArray type="Float64" Name="spokeLength" format="ascii" RangeMin="0.04584581192005948" RangeMax="0.1900910971232352">
          0.053179069637808454 0.057921265650498044 0.0793633415182211 0.06556595409356852 0.04584581192005948 0.05519679784993859
          0.11322371104441371 0.10452482947470536 0.06086417969019531 0.05643620254613194 0.070422267044183 0.07301531480832373
          0.06841587972769607 0.1166859829461428 0.1900910971232352 0.09478471884171445 0.11778134442690086 0.13329527491015133
          0.11514755930462314 0.12168830218168393 0.11255087553336238 0.11313461111181546 0.10185941653764663 0.13009674191349346
        </DataArray>
      </PointData>
      <CellData>
      </CellData>
      <Points>
        <DataArray type="Float64" Name="Points" NumberOfComponents="3" format="ascii" RangeMin="0.3452224672105086" RangeMax="1.3095926427808016">
          0.19097216286806062 0.8905324455099932 0.9010667042898969 0.24198493395413476 0.8568729626570393 0.8070950100233282
          0.2623772169062911 0.7557267022400728 0.6977331187657174 0.27250357506932205 0.6479621932093654 0.5959454639825243
          0.2612651998832667 0.5394487741882948 0.48521332449903176 0.25443633539302946 0.3947427720026543 0.4128972252998399
          0.19024769852394716 0.2509283356344016 0.3947245641174707 0.19172867277063152 0.18166691019660872 0.2741347007133304
          0.23828789139465326 0.8812671382471761 0.9247974000722549 0.3421811343683788 0.859845999471013 0.8280468462728601
          0.39001164595657345 0.7724404358420902 0.7074419491998356 0.404924769941969 0.6737964635768119 0.6136114224788106
          0.4226891932947752 0.5596162365714071 0.5321333543753491 0.40671392628355413 0.44032220759148627 0.4161730018952601
          0.332773122309658 0.29488750257852353 0.31213356477011517 0.2829796940417919 0.1167865924532778 0.159567968120411
          0.34848381673504625 0.8985296434266229 0.8866997233466383 0.4439083236181429 0.8826168789016724 0.796411683743668
          0.5188990218601968 0.8075077503959008 0.7069640672421554 0.5655338890502042 0.7109876414352642 0.6098908625756336
          0.5669595588805605 0.5686621556627722 0.5246288608591871 0.5610952570715039 0.39636180004502036 0.43385468682472644
          0.5051932637603275 0.25068577431676786 0.3258093739685933 0.40669764647670514 0.18278688603305296 0.22310288151140398
          <InformationKey name="L2_NORM_RANGE" location="vtkDataArray" length="2">
            <Value index="0">
              0.34522246721
            </Value>
            <Value index="1">
              1.3095926428
            </Value>
          </InformationKey>
        </DataArray>
      </Points>
      <Verts>
        <DataArray type="Int64" Name="connectivity" format="ascii" RangeMin="0" RangeMax="17">
        </DataArray>
        <DataArray type="Int64" Name="offsets" format="ascii" RangeMin="19" RangeMax="19">
        </DataArray>
      </Verts>
      <Lines>
        <DataArray type="Int64" Name="connectivity" format="ascii" RangeMin="0" RangeMax="17">
        </DataArray>
        <DataArray type="Int64" Name="offsets" format="ascii" RangeMin="19" RangeMax="19">
        </DataArray>
      </Lines>
      <Strips>
        <DataArray type="Int64" Name="connectivity" format="ascii" RangeMin="0" RangeMax="17">
        </DataArray>
        <DataArray type="Int64" Name="offsets" format="ascii" RangeMin="19" RangeMax="19">
        </DataArray>
      </Strips>
      <Polys>
        <DataArray type="Int64" Name="connectivity" format="ascii" RangeMin="0" RangeMax="17">
          0 8 9 1 1 9
          10 2 2 10 11 3
          3 11 12 4 4 12
          13 5 5 13 14 6
          6 14 15 7 8 16
          17 9 9 17 18 10
          10 18 19 11 11 19
          20 12 12 20 21 13
          13 21 22 14 14 22
          23 15
        </DataArray>
        <DataArray type="Int64" Name="offsets" format="ascii" RangeMin="19" RangeMax="19">
          4 8 12 16 20 24
          28 32 36 40 44 48
          52 56
        </DataArray>
      </Polys>
    </Piece>
  </PolyData>
</VTKFile>
