<?xml version="1.0"?>
<VTKFile type="PolyData" version="0.1" byte_order="LittleEndian" header_type="UInt32" compressor="vtkZLibDataCompressor">
  <PolyData>
    <Piece NumberOfPoints="25" NumberOfVerts="0" NumberOfLines="0" NumberOfStrips="0" NumberOfPolys="16">
      <PointData Scalars="spokeLength" Vectors="spokeDirection">
        <DataArray type="Float64" Name="spokeDirection" NumberOfComponents="3" format="ascii" RangeMin="0.9999999999999999" RangeMax="1">
          -0.7690319028217903 0.14807688631863294 0.6218224571213835 -0.8588558205481485 0.18232160951445148 0.478670565435798
          -0.8196982297034493 0.3289556374525224 0.46891683783932936 -0.6385315170803143 0.550795096911861 0.5374962910690325
          -0.4767796130253813 0.6980687541993819 0.5342108338604626 -0.4589828274314206 0.2076165784487301 0.863846120831888
          -0.3787632673270408 0.47251752772308936 0.7957798522947187 -0.28364574364325523 0.6331060825148908 0.720223423942677
          -0.18101457514129532 0.7007594294557046 0.6900506833670492 -0.20603060553966263 0.7558178697760519 0.6215229177658302
          0.11991018772438307 0.1784486761164273 0.9766153884064072 0.015804905257763915 0.5256960589241141 0.8505256366515047
          0.014734877804706925 0.6859785412791023 0.727472559125549 0.06617196734431365 0.7102603311491601 0.7008220407019663
          0.15661494972333154 0.748865122545455 0.6439509187493555 0.5091092904688591 0.1268282581226713 0.8513062453076824
          0.35508253491142144 0.4488450154993923 0.8200332587537104 0.2506438960109822 0.6747236226838352 0.6942086648730609
          0.2969901658945679 0.6778026652171749 0.6725922898654215 0.45678156537290787 0.6648679631994324 0.5910170835487873
          0.7030867358370368 0.04163822828810983 0.7098840044930214 0.7879290466248876 0.14219596256412967 0.5991227968582538
          0.7955769856787674 0.4265768515670859 0.43022023379357516 0.6614261813042783 0.5892779795581237 0.4639686083057081
          0.6241593674949448 0.5874098674957551 0.5151453499129444
          <InformationKey name="L2_NORM_RANGE" location="vtkDataArray" length="2">
            <Value index="0">
              1
            </Value>
            <Value index="1">
              1
            </Value>
          </InformationKey>
        </DataArray>
        <DataArray type="Float64" Name="spokeLength" format="ascii" RangeMin="2.1722999421929052" RangeMax="4.783140999164916">
          2.966463577946856 3.5844295239627053 3.1213079610109897 2.9549564422873584 3.1234176531804136 2.5409866781437667
          2.7192114675436647 3.577868847827275 4.469523845626661 3.21557381372861 2.685659543292521 2.5068033850149565
          3.636723745539127 4.783140999164916 3.321416894868187 3.5478088768259917 2.60462968202793 3.1206301946636255
          4.368039817387502 3.7008166225358305 3.8473193165558066 2.993461644932725 2.1722999421929052 2.770745703452771
          3.762854732800314
        </DataArray>
      </PointData>
      <CellData>
      </CellData>
      <Points>
        <DataArray type="Float32" Name="Points" NumberOfComponents="3" format="ascii" RangeMin="165.13357189110363" RangeMax="185.3833776885066">
          -120.49222564697266 -123.03178405761719 66.01847839355469 -121.37420654296875 -119.95612335205078 63.59434127807617
          -121.1722183227539 -115.98472595214844 61.05170822143555 -120.18658447265625 -112.04777526855469 58.07695388793945
          -119.02449035644531 -108.59444427490234 55.256874084472656 -118.67440795898438 -124.96633911132812 68.31394958496094
          -119.67739868164062 -119.78557586669922 63.3885383605957 -119.67290496826172 -115.90360260009766 60.838294982910156
          -118.96583557128906 -112.090576171875 58.00337219238281 -117.71183013916016 -106.11714935302734 53.09066390991211
          -116.30850982666016 -125.7219009399414 69.5531005859375 -118.27125549316406 -119.63774871826172 63.32541275024414
          -118.37313842773438 -115.8740463256836 60.65034103393555 -117.8142318725586 -112.17096710205078 57.898075103759766
          -116.25050354003906 -105.15071868896484 52.204261779785156 -114.74057006835938 -125.21338653564453 69.25515747070312
          -116.92171478271484 -119.7757568359375 63.612003326416016 -117.15415954589844 -115.90215301513672 60.505470275878906
          -116.61443328857422 -112.029052734375 57.597049713134766 -115.03815460205078 -105.97789001464844 52.9528694152832
          -114.74146270751953 -123.22967529296875 67.2662353515625 -115.46834564208984 -119.97499084472656 64.06269073486328
          -115.88951110839844 -115.98287200927734 60.4146614074707 -115.35285949707031 -111.89649200439453 57.301849365234375
          -114.75318908691406 -108.39131164550781 54.89421081542969
          <InformationKey name="L2_NORM_RANGE" location="vtkDataArray" length="2">
            <Value index="0">
              165.13357189
            </Value>
            <Value index="1">
              185.38337769
            </Value>
          </InformationKey>
        </DataArray>
      </Points>
      <Verts>
        <DataArray type="Int64" Name="connectivity" format="ascii" RangeMin="0" RangeMax="24">
        </DataArray>
        <DataArray type="Int64" Name="offsets" format="ascii" RangeMin="4" RangeMax="64">
        </DataArray>
      </Verts>
      <Lines>
        <DataArray type="Int64" Name="connectivity" format="ascii" RangeMin="0" RangeMax="24">
        </DataArray>
        <DataArray type="Int64" Name="offsets" format="ascii" RangeMin="4" RangeMax="64">
        </DataArray>
      </Lines>
      <Strips>
        <DataArray type="Int64" Name="connectivity" format="ascii" RangeMin="0" RangeMax="24">
        </DataArray>
        <DataArray type="Int64" Name="offsets" format="ascii" RangeMin="4" RangeMax="64">
        </DataArray>
      </Strips>
      <Polys>
        <DataArray type="Int64" Name="connectivity" format="ascii" RangeMin="0" RangeMax="24">
          0 5 6 1 1 6
          7 2 2 7 8 3
          3 8 9 4 5 10
          11 6 6 11 12 7
          7 12 13 8 8 13
          14 9 10 15 16 11
          11 16 17 12 12 17
          18 13 13 18 19 14
          15 20 21 16 16 21
          22 17 17 22 23 18
          18 23 24 19
        </DataArray>
        <DataArray type="Int64" Name="offsets" format="ascii" RangeMin="4" RangeMax="64">
          4 8 12 16 20 24
          28 32 36 40 44 48
          52 56 60 64
        </DataArray>
      </Polys>
    </Piece>
  </PolyData>
</VTKFile>
