<?xml version="1.0"?>
<VTKFile type="PolyData" version="0.1" byte_order="LittleEndian" header_type="UInt32" compressor="vtkZLibDataCompressor">
  <PolyData>
<<<<<<< HEAD
    <Piece NumberOfPoints="25" NumberOfVerts="0" NumberOfLines="0" NumberOfStrips="0" NumberOfPolys="16">
      <PointData Scalars="spokeLength" Vectors="spokeDirection">
        <DataArray type="Float64" Name="spokeDirection" NumberOfComponents="3" format="ascii" RangeMin="0.9999999999999999" RangeMax="1">
          -0.7903032419767348 -0.5413866120272355 -0.28691692532636365 -0.876368388449685 -0.41618878467770287 -0.242415641480905
          -0.8256793356679675 -0.435850670467741 -0.35817290196736634 -0.6768148870331583 -0.43877340341414534 -0.5911002530422913
          -0.501166336972925 -0.3986532146052277 -0.7680546316311482 -0.5186678121234826 -0.7528188464762111 -0.40527457983109005
          -0.3088873915370213 -0.6966393590842144 -0.6475200249599931 -0.23371921669633652 -0.6732456034470143 -0.7015095759760634
          -0.21364357950797627 -0.6191940760989295 -0.7556157204948903 -0.2897115260386267 -0.372731659981775 -0.8815545027549916
          0.1857156377584026 -0.9020659882610695 -0.3895980681607262 0.1105306781252314 -0.7247686305438001 -0.6800686740122948
          0.10758264253132419 -0.6836979151790005 -0.7217916152227496 0.042329506687475135 -0.6366265708645183 -0.7700096247014575
          -0.08840296508058951 -0.3481366465340633 -0.9332661952010138 0.7223093607885407 -0.6869130327884911 -0.08012286004984498
          0.5416530038809849 -0.6906819689951087 -0.47913509691082484 0.4614811256361987 -0.6359218809429731 -0.6185778302036844
          0.3126568109394736 -0.5831720227302997 -0.7497707052678233 0.17344479669822763 -0.32976804392551035 -0.9279924243784823
          0.8310840889901614 -0.5545458072623602 0.042168527068546374 0.8861338924248414 -0.46170105563071534 -0.03998574652901566
          0.8811702555171872 -0.3927661582461782 -0.2631990230382951 0.7428174557601617 -0.3374977745281769 -0.5782019367025054
          0.4781240995208273 -0.3349515926698114 -0.8119142664255599
          <InformationKey name="L2_NORM_RANGE" location="vtkDataArray" length="2">
            <Value index="0">
              1
            </Value>
            <Value index="1">
              1
            </Value>
          </InformationKey>
        </DataArray>
        <DataArray type="Float64" Name="spokeLength" format="ascii" RangeMin="1.7157572396489298" RangeMax="4.258589908238311">
          2.594709120604082 3.0318010154385524 2.8600327003334534 2.846117700578343 3.170199019344406 2.0892025583072327
          2.562020113744745 3.1783169159134554 3.9828557074340907 3.586746562031664 1.7157572396489298 2.5438065229405487
          3.344556812640448 4.258589908238311 3.6039396383317586 2.5824455576259524 2.4152614877540017 3.196457553852089
          4.048289420584619 3.4480792816202586 3.327330683661694 3.0526956627262125 3.0490898588298823 3.2653517242911345
          3.2978508959917328
=======
    <Piece NumberOfPoints="81" NumberOfVerts="0" NumberOfLines="0" NumberOfStrips="0" NumberOfPolys="64">
      <PointData Scalars="spokeLength" Vectors="spokeDirection">
        <DataArray type="Float64" Name="spokeDirection" NumberOfComponents="3" format="ascii" RangeMin="1" RangeMax="1">
          -0.79030730695 -0.55054804328 -0.26890744247 -0.82103905174 -0.50253306956 -0.27084200103
          -0.86850399675 -0.38418699916 -0.31321104277 -0.88183989705 -0.30786260091 -0.35718204733
          -0.85517392394 -0.29183861577 -0.42837808319 -0.81539905488 -0.27711882273 -0.50826129047
          -0.80467131483 -0.18902240979 -0.56282733026 -0.78713496938 -0.070481541983 -0.61274047705
          -0.72262033425 0.043058939515 -0.68990273246 -0.74301952003 -0.63501025581 -0.21138582705
          -0.58775671438 -0.64565832009 -0.48751141361 -0.62542257415 -0.57366868347 -0.52891478081
          -0.6294943216 -0.50906803579 -0.58701502026 -0.60573332863 -0.46837855647 -0.64320188311
          -0.58360840272 -0.42090915777 -0.69443265561 -0.56504628483 -0.34138640811 -0.75111784452
          -0.53792242306 -0.23175492788 -0.81051164098 -0.58346551339 0.13269864817 -0.8012234791
          -0.57982767427 -0.81106683169 -0.077268769116 -0.31813291573 -0.72928045111 -0.60575694099
          -0.3274519095 -0.67464972591 -0.66153079617 -0.29659143092 -0.61439649888 -0.73112958172
          -0.28741417861 -0.56553898636 -0.77301923963 -0.29293130705 -0.51302515616 -0.8068435031
          -0.27658935799 -0.4339129247 -0.8574484829 -0.24926744412 -0.32943166668 -0.91068134838
          -0.38979879791 0.20035288606 -0.89884126418 -0.27644030149 -0.95669446218 0.091194658576
          -0.045292345877 -0.76157689994 -0.64648992945 0.012290938693 -0.70630882192 -0.70779713259
          0.060332517218 -0.64183028343 -0.76446966888 0.055633704452 -0.6018321422 -0.79668247348
          0.036505091023 -0.5575395967 -0.82934731955 0.04451553975 -0.48000302982 -0.87613666633
          0.055592170686 -0.38180597245 -0.9225690814 -0.17366985119 0.25598392361 -0.95095268738
          0.10281993561 -0.9746472817 0.19872276445 0.26018255289 -0.7443887044 -0.61497194728
          0.35849238502 -0.66349650584 -0.65670053801 0.38865001211 -0.59309183242 -0.7051193136
          0.3626768561 -0.5763371108 -0.73232576956 0.35063690149 -0.54649048741 -0.7605273897
          0.34657399482 -0.47852584288 -0.80678341815 0.33134002812 -0.39266577823 -0.85792037648
          0.086051258835 0.28397227691 -0.95496331176 0.447179564 -0.86285867814 0.23559571112
          0.57964240136 -0.65644785561 -0.48279488338 0.65142622561 -0.55699808461 -0.51516696937
          0.67327719339 -0.47809349157 -0.56402520705 0.61083069725 -0.49825786378 -0.6153250852
          0.60478345356 -0.48356235249 -0.63277517774 0.5929501429 -0.44007531906 -0.67434697419
          0.55694059921 -0.37265585742 -0.74225654654 0.33789209887 0.26882122693 -0.90197786973
          0.70562508123 -0.66681601184 0.23968656844 0.79772184151 -0.51706325329 -0.31029897788
          0.83483312611 -0.43265908993 -0.3403817907 0.84442335321 -0.38415908371 -0.37332425444
          0.80748959165 -0.39364232962 -0.43932479523 0.7964556193 -0.39773881635 -0.45548027448
          0.77435375246 -0.38131128876 -0.50495343064 0.73123231808 -0.33498043943 -0.59421158032
          0.49800504429 0.14747009241 -0.85454288816 0.88805407809 -0.43889323777 0.13686738192
          0.91632340708 -0.36813126 -0.1575778825 0.93179751027 -0.31216214146 -0.18522472105
          0.93605415013 -0.28795837183 -0.20219447106 0.92906432408 -0.29319866862 -0.22555270436
          0.91200829189 -0.31064698399 -0.26784198114 0.89372190819 -0.31261509764 -0.32176536723
          0.86202198196 -0.28101814033 -0.42183753677 0.76959923529 -0.0077256500088 -0.6384804863
          0.96406116101 -0.2642267634 0.027754194948 0.97827966279 -0.20562058079 -0.026250297569
          0.98320610554 -0.17698205057 -0.044532098677 0.98409172575 -0.16852642343 -0.056234508303
          0.9820654599 -0.17626509387 -0.066918227346 0.97518571778 -0.19829863396 -0.098440172733
          0.96840681269 -0.21344698346 -0.12895204685 0.96122983194 -0.18239938907 -0.20680346482
          0.90919277272 -0.15009222471 -0.38838231952
        </DataArray>
        <DataArray type="Float64" Name="spokeLength" format="ascii" RangeMin="0.080769380184" RangeMax="0.18167431396">
          0.12863457894 0.14925636199 0.15715881277 0.17288471718 0.17830622891 0.17537878399
          0.15848324395 0.14468894903 0.13514606348 0.1136743122 0.11612697831 0.12586633261
          0.13233855427 0.13626060769 0.13761868089 0.13373211584 0.12827482674 0.12924671232
          0.10519356614 0.097561312278 0.10090248014 0.099900564777 0.10532658335 0.11316320299
          0.11696431233 0.1184727692 0.12702255543 0.11333711714 0.086363203109 0.08757673493
          0.087449038422 0.0923120778 0.10012908367 0.10921566804 0.11560232127 0.12699194529
          0.12957261238 0.080769380184 0.083429274288 0.082938297274 0.087485895643 0.095956113209
          0.10949792406 0.11905942151 0.13665258031 0.14019202513 0.086033495468 0.089550100193
          0.084469097797 0.087209359224 0.10003611614 0.11637655818 0.12741132279 0.1625701395
          0.13557857303 0.10246914732 0.10789294197 0.10391738123 0.095334609236 0.11352006458
          0.12936989886 0.13961071467 0.18167431396 0.12950928085 0.12641544628 0.13441898393
          0.13508334634 0.13369867762 0.13862458737 0.14721750648 0.15501321584 0.17543314994
          0.14129662161 0.15602130085 0.16093394939 0.16224123925 0.16309465705 0.16087064979
          0.16215141157 0.17215874065 0.17319689868
>>>>>>> master
        </DataArray>
      </PointData>
      <CellData>
      </CellData>
      <Points>
<<<<<<< HEAD
        <DataArray type="Float32" Name="Points" NumberOfComponents="3" format="ascii" RangeMin="165.13357189110363" RangeMax="185.3833776885066">
          -120.49222564697266 -123.03178405761719 66.01847839355469 -121.37420654296875 -119.95612335205078 63.59434127807617
          -121.1722183227539 -115.98472595214844 61.05170822143555 -120.18658447265625 -112.04777526855469 58.07695388793945
          -119.02449035644531 -108.59444427490234 55.256874084472656 -118.67440795898438 -124.96633911132812 68.31394958496094
          -119.67739868164062 -119.78557586669922 63.3885383605957 -119.67290496826172 -115.90360260009766 60.838294982910156
          -118.96583557128906 -112.090576171875 58.00337219238281 -117.71183013916016 -106.11714935302734 53.09066390991211
          -116.30850982666016 -125.7219009399414 69.5531005859375 -118.27125549316406 -119.63774871826172 63.32541275024414
          -118.37313842773438 -115.8740463256836 60.65034103393555 -117.8142318725586 -112.17096710205078 57.898075103759766
          -116.25050354003906 -105.15071868896484 52.204261779785156 -114.74057006835938 -125.21338653564453 69.25515747070312
          -116.92171478271484 -119.7757568359375 63.612003326416016 -117.15415954589844 -115.90215301513672 60.505470275878906
          -116.61443328857422 -112.029052734375 57.597049713134766 -115.03815460205078 -105.97789001464844 52.9528694152832
          -114.74146270751953 -123.22967529296875 67.2662353515625 -115.46834564208984 -119.97499084472656 64.06269073486328
          -115.88951110839844 -115.98287200927734 60.4146614074707 -115.35285949707031 -111.89649200439453 57.301849365234375
          -114.75318908691406 -108.39131164550781 54.89421081542969
          <InformationKey name="L2_NORM_RANGE" location="vtkDataArray" length="2">
            <Value index="0">
              165.13357189
            </Value>
            <Value index="1">
              185.38337769
            </Value>
          </InformationKey>
=======
        <DataArray type="Float32" Name="Points" NumberOfComponents="3" format="ascii" RangeMin="0.041998736233" RangeMax="0.27048903428">
          -0.063147306442 -0.047921370715 0.0093717090786 -0.064640000463 -0.028290312737 -0.011140867136
          -0.065538287163 -0.0084369704127 -0.030392454937 -0.065213441849 0.011735390872 -0.04804681614
          -0.06354381144 0.032089427114 -0.064886517823 -0.060715086758 0.053345683962 -0.081910096109
          -0.057082343847 0.077122285962 -0.098883517087 -0.053258650005 0.10462732613 -0.11422272772
          -0.049736928195 0.13488389552 -0.12738615274 -0.061449177563 -0.067305982113 0.029606884345
          -0.060034543276 -0.028287025169 -0.011350886896 -0.060744747519 -0.0084822773933 -0.030584445223
          -0.060376171023 0.011661288328 -0.048143800348 -0.058686867356 0.032003507018 -0.064821399748
          -0.055789150298 0.053234662861 -0.0816661641 -0.052082743496 0.076919689775 -0.098488122225
          -0.048319116235 0.10424420983 -0.11370375007 -0.046462923288 0.16488130391 -0.13973507285
          -0.059078201652 -0.084606036544 0.047100059688 -0.055436678231 -0.028282448649 -0.011578458361
          -0.055984728038 -0.0085255810991 -0.030785594136 -0.055589985102 0.011587332934 -0.048246923834
          -0.05388410762 0.031910665333 -0.064766325057 -0.050910476595 0.053106676787 -0.081439785659
          -0.047117620707 0.076691940427 -0.098113484681 -0.043397188187 0.10383246839 -0.11319897324
          -0.042982172221 0.1904373318 -0.15143638849 -0.055280823261 -0.096958436072 0.059190455824
          -0.050842016935 -0.02827411145 -0.011820618063 -0.051250834018 -0.0085637094453 -0.030990783125
          -0.050845202059 0.011516739614 -0.048349775374 -0.049125861377 0.031813852489 -0.064714387059
          -0.046071644872 0.052963726223 -0.08122356236 -0.042182296515 0.076438963413 -0.097752347589
          -0.038490299135 0.10339035839 -0.11270304024 -0.038844432682 0.20731782913 -0.16009625793
          -0.049831785262 -0.10177755356 0.063871353865 -0.046246238053 -0.028259085491 -0.012074178085
          -0.046535316855 -0.0085935322568 -0.031194929034 -0.046131663024 0.011452653445 -0.04844583571
          -0.044402226806 0.03171601519 -0.064658559859 -0.041265174747 0.052807867527 -0.081009991467
          -0.037272330374 0.076161079109 -0.09739703685 -0.033596288413 0.10291645676 -0.11221019179
          -0.03382050246 0.21305093169 -0.16318637133 -0.043231546879 -0.097641058266 0.060157224536
          -0.04163280502 -0.028547823429 -0.012012575753 -0.041825588793 -0.0088108703494 -0.031212147325
          -0.041442602873 0.011301497929 -0.048450008035 -0.039703018963 0.031619910151 -0.064591906965
          -0.036464277655 0.05274599418 -0.080870434642 -0.032338041812 0.076106958091 -0.097197197378
          -0.028655672446 0.10286420584 -0.11193148792 -0.027830325067 0.20680487156 -0.15953603387
          -0.036681171507 -0.085508204997 0.048554323614 -0.036995675415 -0.028824858367 -0.011954788119
          -0.037110127509 -0.0090143810958 -0.031219175085 -0.03676122427 0.011162557639 -0.048435743898
          -0.035017903894 0.031527996063 -0.064507655799 -0.031677827239 0.052674233913 -0.080717682838
          -0.02741105482 0.07602635026 -0.096985407174 -0.023707699031 0.10277290642 -0.11163838953
          -0.02126827091 0.18898384273 -0.14967525005 -0.031589783728 -0.068233132362 0.030714636669
          -0.032329790294 -0.029086824507 -0.011897988617 -0.032379936427 -0.0092012370005 -0.031211609021
          -0.032076213509 0.011038292199 -0.048397369683 -0.030336469412 0.03144229576 -0.064399518073
          -0.026898512617 0.052593767643 -0.080544807017 -0.022487642244 0.075919084251 -0.096754074097
          -0.018750876188 0.102641128 -0.11132448912 -0.015606242232 0.1623557359 -0.13649894297
          -0.028667360544 -0.048933181912 0.0094582755119 -0.027630379423 -0.029330600053 -0.011839420535
          -0.02762597613 -0.009368846193 -0.031185464934 -0.027376111597 0.010930711403 -0.048329778016
          -0.025648279116 0.031364236027 -0.064261764288 -0.022119259462 0.052505277097 -0.080345317721
          -0.017564525828 0.07578510046 -0.096495985985 -0.01378412731 0.10246775299 -0.11098369211
          -0.012826806866 0.13206385076 -0.12361492217
>>>>>>> master
        </DataArray>
      </Points>
      <Verts>
        <DataArray type="Int64" Name="connectivity" format="ascii" RangeMin="1e+299" RangeMax="-1e+299">
        </DataArray>
        <DataArray type="Int64" Name="offsets" format="ascii" RangeMin="1e+299" RangeMax="-1e+299">
        </DataArray>
      </Verts>
      <Lines>
        <DataArray type="Int64" Name="connectivity" format="ascii" RangeMin="1e+299" RangeMax="-1e+299">
        </DataArray>
        <DataArray type="Int64" Name="offsets" format="ascii" RangeMin="1e+299" RangeMax="-1e+299">
        </DataArray>
      </Lines>
      <Strips>
        <DataArray type="Int64" Name="connectivity" format="ascii" RangeMin="1e+299" RangeMax="-1e+299">
        </DataArray>
        <DataArray type="Int64" Name="offsets" format="ascii" RangeMin="1e+299" RangeMax="-1e+299">
        </DataArray>
      </Strips>
      <Polys>
<<<<<<< HEAD
        <DataArray type="Int64" Name="connectivity" format="ascii" RangeMin="0" RangeMax="24">
          0 5 6 1 1 6
          7 2 2 7 8 3
          3 8 9 4 5 10
          11 6 6 11 12 7
          7 12 13 8 8 13
          14 9 10 15 16 11
          11 16 17 12 12 17
          18 13 13 18 19 14
          15 20 21 16 16 21
          22 17 17 22 23 18
          18 23 24 19
        </DataArray>
        <DataArray type="Int64" Name="offsets" format="ascii" RangeMin="4" RangeMax="64">
          4 8 12 16 20 24
          28 32 36 40 44 48
          52 56 60 64
=======
        <DataArray type="Int64" Name="connectivity" format="ascii" RangeMin="0" RangeMax="80">
          0 9 10 1 1 10
          11 2 2 11 12 3
          3 12 13 4 4 13
          14 5 5 14 15 6
          6 15 16 7 7 16
          17 8 9 18 19 10
          10 19 20 11 11 20
          21 12 12 21 22 13
          13 22 23 14 14 23
          24 15 15 24 25 16
          16 25 26 17 18 27
          28 19 19 28 29 20
          20 29 30 21 21 30
          31 22 22 31 32 23
          23 32 33 24 24 33
          34 25 25 34 35 26
          27 36 37 28 28 37
          38 29 29 38 39 30
          30 39 40 31 31 40
          41 32 32 41 42 33
          33 42 43 34 34 43
          44 35 36 45 46 37
          37 46 47 38 38 47
          48 39 39 48 49 40
          40 49 50 41 41 50
          51 42 42 51 52 43
          43 52 53 44 45 54
          55 46 46 55 56 47
          47 56 57 48 48 57
          58 49 49 58 59 50
          50 59 60 51 51 60
          61 52 52 61 62 53
          54 63 64 55 55 64
          65 56 56 65 66 57
          57 66 67 58 58 67
          68 59 59 68 69 60
          60 69 70 61 61 70
          71 62 63 72 73 64
          64 73 74 65 65 74
          75 66 66 75 76 67
          67 76 77 68 68 77
          78 69 69 78 79 70
          70 79 80 71
        </DataArray>
        <DataArray type="Int64" Name="offsets" format="ascii" RangeMin="4" RangeMax="256">
          4 8 12 16 20 24
          28 32 36 40 44 48
          52 56 60 64 68 72
          76 80 84 88 92 96
          100 104 108 112 116 120
          124 128 132 136 140 144
          148 152 156 160 164 168
          172 176 180 184 188 192
          196 200 204 208 212 216
          220 224 228 232 236 240
          244 248 252 256
>>>>>>> master
        </DataArray>
      </Polys>
    </Piece>
  </PolyData>
</VTKFile>
