<?xml version="1.0"?>
<VTKFile type="PolyData" version="0.1" byte_order="LittleEndian" header_type="UInt32" compressor="vtkZLibDataCompressor">
  <PolyData>
    <Piece NumberOfPoints="25" NumberOfVerts="0" NumberOfLines="0" NumberOfStrips="0" NumberOfPolys="16">
      <PointData Scalars="spokeLength" Vectors="spokeDirection">
        <DataArray type="Float64" Name="spokeDirection" NumberOfComponents="3" format="ascii" RangeMin="0.9999999999999999" RangeMax="1">
          -0.7903032419767348 -0.5413866120272355 -0.28691692532636365 -0.876368388449685 -0.41618878467770287 -0.242415641480905
          -0.8256793356679675 -0.435850670467741 -0.35817290196736634 -0.6768148870331583 -0.43877340341414534 -0.5911002530422913
          -0.501166336972925 -0.3986532146052277 -0.7680546316311482 -0.5186678121234826 -0.7528188464762111 -0.40527457983109005
          -0.3088873915370213 -0.6966393590842144 -0.6475200249599931 -0.23371921669633652 -0.6732456034470143 -0.7015095759760634
          -0.21364357950797627 -0.6191940760989295 -0.7556157204948903 -0.2897115260386267 -0.372731659981775 -0.8815545027549916
          0.1857156377584026 -0.9020659882610695 -0.3895980681607262 0.1105306781252314 -0.7247686305438001 -0.6800686740122948
          0.10758264253132419 -0.6836979151790005 -0.7217916152227496 0.042329506687475135 -0.6366265708645183 -0.7700096247014575
          -0.08840296508058951 -0.3481366465340633 -0.9332661952010138 0.7223093607885407 -0.6869130327884911 -0.08012286004984498
          0.5416530038809849 -0.6906819689951087 -0.47913509691082484 0.4614811256361987 -0.6359218809429731 -0.6185778302036844
          0.3126568109394736 -0.5831720227302997 -0.7497707052678233 0.17344479669822763 -0.32976804392551035 -0.9279924243784823
          0.8310840889901614 -0.5545458072623602 0.042168527068546374 0.8861338924248414 -0.46170105563071534 -0.03998574652901566
          0.8811702555171872 -0.3927661582461782 -0.2631990230382951 0.7428174557601617 -0.3374977745281769 -0.5782019367025054
          0.4781240995208273 -0.3349515926698114 -0.8119142664255599
          <InformationKey name="L2_NORM_RANGE" location="vtkDataArray" length="2">
            <Value index="0">
              1
            </Value>
            <Value index="1">
              1
            </Value>
          </InformationKey>
        </DataArray>
        <DataArray type="Float64" Name="spokeLength" format="ascii" RangeMin="1.7157572396489298" RangeMax="4.258589908238311">
          2.594709120604082 3.0318010154385524 2.8600327003334534 2.846117700578343 3.170199019344406 2.0892025583072327
          2.562020113744745 3.1783169159134554 3.9828557074340907 3.586746562031664 1.7157572396489298 2.5438065229405487
          3.344556812640448 4.258589908238311 3.6039396383317586 2.5824455576259524 2.4152614877540017 3.196457553852089
          4.048289420584619 3.4480792816202586 3.327330683661694 3.0526956627262125 3.0490898588298823 3.2653517242911345
          3.2978508959917328
        </DataArray>
      </PointData>
      <CellData>
      </CellData>
      <Points>
        <DataArray type="Float32" Name="Points" NumberOfComponents="3" format="ascii" RangeMin="165.13357189110363" RangeMax="185.3833776885066">
          -120.49222564697266 -123.03178405761719 66.01847839355469 -121.37420654296875 -119.95612335205078 63.59434127807617
          -121.1722183227539 -115.98472595214844 61.05170822143555 -120.18658447265625 -112.04777526855469 58.07695388793945
          -119.02449035644531 -108.59444427490234 55.256874084472656 -118.67440795898438 -124.96633911132812 68.31394958496094
          -119.67739868164062 -119.78557586669922 63.3885383605957 -119.67290496826172 -115.90360260009766 60.838294982910156
          -118.96583557128906 -112.090576171875 58.00337219238281 -117.71183013916016 -106.11714935302734 53.09066390991211
          -116.30850982666016 -125.7219009399414 69.5531005859375 -118.27125549316406 -119.63774871826172 63.32541275024414
          -118.37313842773438 -115.8740463256836 60.65034103393555 -117.8142318725586 -112.17096710205078 57.898075103759766
          -116.25050354003906 -105.15071868896484 52.204261779785156 -114.74057006835938 -125.21338653564453 69.25515747070312
          -116.92171478271484 -119.7757568359375 63.612003326416016 -117.15415954589844 -115.90215301513672 60.505470275878906
          -116.61443328857422 -112.029052734375 57.597049713134766 -115.03815460205078 -105.97789001464844 52.9528694152832
          -114.74146270751953 -123.22967529296875 67.2662353515625 -115.46834564208984 -119.97499084472656 64.06269073486328
          -115.88951110839844 -115.98287200927734 60.4146614074707 -115.35285949707031 -111.89649200439453 57.301849365234375
          -114.75318908691406 -108.39131164550781 54.89421081542969
          <InformationKey name="L2_NORM_RANGE" location="vtkDataArray" length="2">
            <Value index="0">
              165.13357189
            </Value>
            <Value index="1">
              185.38337769
            </Value>
          </InformationKey>
        </DataArray>
      </Points>
      <Verts>
        <DataArray type="Int64" Name="connectivity" format="ascii" RangeMin="1e+299" RangeMax="-1e+299">
        </DataArray>
        <DataArray type="Int64" Name="offsets" format="ascii" RangeMin="1e+299" RangeMax="-1e+299">
        </DataArray>
      </Verts>
      <Lines>
        <DataArray type="Int64" Name="connectivity" format="ascii" RangeMin="1e+299" RangeMax="-1e+299">
        </DataArray>
        <DataArray type="Int64" Name="offsets" format="ascii" RangeMin="1e+299" RangeMax="-1e+299">
        </DataArray>
      </Lines>
      <Strips>
        <DataArray type="Int64" Name="connectivity" format="ascii" RangeMin="1e+299" RangeMax="-1e+299">
        </DataArray>
        <DataArray type="Int64" Name="offsets" format="ascii" RangeMin="1e+299" RangeMax="-1e+299">
        </DataArray>
      </Strips>
      <Polys>
        <DataArray type="Int64" Name="connectivity" format="ascii" RangeMin="0" RangeMax="24">
          0 5 6 1 1 6
          7 2 2 7 8 3
          3 8 9 4 5 10
          11 6 6 11 12 7
          7 12 13 8 8 13
          14 9 10 15 16 11
          11 16 17 12 12 17
          18 13 13 18 19 14
          15 20 21 16 16 21
          22 17 17 22 23 18
          18 23 24 19
        </DataArray>
        <DataArray type="Int64" Name="offsets" format="ascii" RangeMin="4" RangeMax="64">
          4 8 12 16 20 24
          28 32 36 40 44 48
          52 56 60 64
        </DataArray>
      </Polys>
    </Piece>
  </PolyData>
</VTKFile>
