<?xml version="1.0"?>
<VTKFile type="PolyData" version="0.1" byte_order="LittleEndian" header_type="UInt32" compressor="vtkZLibDataCompressor">
  <PolyData>
    <Piece NumberOfPoints="24" NumberOfVerts="0" NumberOfLines="0" NumberOfStrips="0" NumberOfPolys="14">
      <PointData Scalars="spokeLength" Vectors="spokeDirection">
        <DataArray type="Float64" Name="spokeDirection" NumberOfComponents="3" format="ascii" RangeMin="1" RangeMax="1.0000000000000002">
          0.02682566014275135 0.9452261963648292 -0.32531188368023556 -0.4636575646186535 0.45040323815324895 -0.7629931754825642
          -0.38067616626712614 0.7212464669156741 -0.5786961123057773 -0.1973028997412631 0.715591693359382 -0.6700746929624648
          -0.655119027023306 0.5208183080192704 -0.5473274618215145 -0.7735417584902009 0.52955748052586 -0.34814080871249664
          -0.5154809511134826 0.6545005950023431 -0.5530898301186872 -0.49665999223730595 0.6563258744575025 -0.5679482358705183
          -0.14741984092304308 0.9847924417702189 0.09193061043240637 -0.4116750754246405 0.6580948435154342 -0.6304243088686481
          -0.1524237541192816 0.6440101984085991 -0.7496785067786736 -0.23901555018451404 0.5669874702904784 -0.7882872416217315
          -0.29984120387115976 0.6292897654666161 -0.7170004487725689 -0.2887655394074797 0.6203688214231473 -0.7292166952674374
          -0.14895321477532955 0.6907559225111753 -0.7075798155147089 -0.09007153306569332 0.8450750611472494 -0.5270059392057821
          -0.20497166062889452 0.9086276723522263 -0.36384388324501027 0.046328878231588475 0.9136928010430441 -0.4037562387925654
          0.27328552121009303 0.7407193195631123 -0.6137181059109205 0.29335927671528755 0.5665838571677072 -0.770014978790703
          0.3336823852547019 0.3472224528336714 -0.8764089422289697 0.07410558904922636 0.5577025679042994 -0.8267261985836771
          0.3490960740335536 0.4188181699362091 -0.8382859128159345 0.4795794413840488 0.6072823557338286 -0.6334127404908553
          <InformationKey name="L2_NORM_RANGE" location="vtkDataArray" length="2">
            <Value index="0">
              1
            </Value>
            <Value index="1">
              1
            </Value>
          </InformationKey>
        </DataArray>
        <DataArray type="Float64" Name="spokeLength" format="ascii" RangeMin="0.033736545047514395" RangeMax="0.1156457549706221">
          0.043168045312877226 0.04830924761723942 0.03739804521233538 0.03519814354081078 0.04341467226728826 0.0862179915754348
          0.09251418466150527 0.08580751094646782 0.033736545047514395 0.08962091286741626 0.08899960832360782 0.07631216979317117
          0.07901555907737369 0.1156457549706221 0.10696539085198753 0.06618503024606484 0.054544081284186606 0.0921578566708768
          0.07431260633695255 0.07409236455513332 0.07704619186094282 0.08878341166541368 0.10276792934803515 0.08320600999281412
        </DataArray>
      </PointData>
      <CellData>
      </CellData>
      <Points>
        <DataArray type="Float64" Name="Points" NumberOfComponents="3" format="ascii" RangeMin="0.3452224672105086" RangeMax="1.3095926427808016">
          0.19097216286806062 0.8905324455099932 0.9010667042898969 0.24198493395413476 0.8568729626570393 0.8070950100233282
          0.2623772169062911 0.7557267022400728 0.6977331187657174 0.27250357506932205 0.6479621932093654 0.5959454639825243
          0.2612651998832667 0.5394487741882948 0.48521332449903176 0.25443633539302946 0.3947427720026543 0.4128972252998399
          0.19024769852394716 0.2509283356344016 0.3947245641174707 0.19172867277063152 0.18166691019660872 0.2741347007133304
          0.23828789139465326 0.8812671382471761 0.9247974000722549 0.3421811343683788 0.859845999471013 0.8280468462728601
          0.39001164595657345 0.7724404358420902 0.7074419491998356 0.404924769941969 0.6737964635768119 0.6136114224788106
          0.4226891932947752 0.5596162365714071 0.5321333543753491 0.40671392628355413 0.44032220759148627 0.4161730018952601
          0.332773122309658 0.29488750257852353 0.31213356477011517 0.2829796940417919 0.1167865924532778 0.159567968120411
          0.34848381673504625 0.8985296434266229 0.8866997233466383 0.4439083236181429 0.8826168789016724 0.796411683743668
          0.5188990218601968 0.8075077503959008 0.7069640672421554 0.5655338890502042 0.7109876414352642 0.6098908625756336
          0.5669595588805605 0.5686621556627722 0.5246288608591871 0.5610952570715039 0.39636180004502036 0.43385468682472644
          0.5051932637603275 0.25068577431676786 0.3258093739685933 0.40669764647670514 0.18278688603305296 0.22310288151140398
          <InformationKey name="L2_NORM_RANGE" location="vtkDataArray" length="2">
            <Value index="0">
              0.34522246721
            </Value>
            <Value index="1">
              1.3095926428
            </Value>
          </InformationKey>
        </DataArray>
      </Points>
      <Verts>
        <DataArray type="Int64" Name="connectivity" format="ascii" RangeMin="0" RangeMax="17">
        </DataArray>
        <DataArray type="Int64" Name="offsets" format="ascii" RangeMin="19" RangeMax="19">
        </DataArray>
      </Verts>
      <Lines>
        <DataArray type="Int64" Name="connectivity" format="ascii" RangeMin="0" RangeMax="17">
        </DataArray>
        <DataArray type="Int64" Name="offsets" format="ascii" RangeMin="19" RangeMax="19">
        </DataArray>
      </Lines>
      <Strips>
        <DataArray type="Int64" Name="connectivity" format="ascii" RangeMin="0" RangeMax="17">
        </DataArray>
        <DataArray type="Int64" Name="offsets" format="ascii" RangeMin="19" RangeMax="19">
        </DataArray>
      </Strips>
      <Polys>
        <DataArray type="Int64" Name="connectivity" format="ascii" RangeMin="0" RangeMax="17">
          0 8 9 1 1 9
          10 2 2 10 11 3
          3 11 12 4 4 12
          13 5 5 13 14 6
          6 14 15 7 8 16
          17 9 9 17 18 10
          10 18 19 11 11 19
          20 12 12 20 21 13
          13 21 22 14 14 22
          23 15
        </DataArray>
        <DataArray type="Int64" Name="offsets" format="ascii" RangeMin="19" RangeMax="19">
          4 8 12 16 20 24
          28 32 36 40 44 48
          52 56
        </DataArray>
      </Polys>
    </Piece>
  </PolyData>
</VTKFile>
