<?xml version="1.0"?>
<VTKFile type="PolyData" version="0.1" byte_order="LittleEndian" header_type="UInt32" compressor="vtkZLibDataCompressor">
  <PolyData>
    <Piece NumberOfPoints="16" NumberOfVerts="0" NumberOfLines="1" NumberOfStrips="0" NumberOfPolys="0">
      <PointData Scalars="spokeLength" Vectors="spokeDirection">
        <DataArray type="Float64" Name="spokeDirection" NumberOfComponents="3" format="ascii" RangeMin="0.9999999431044984" RangeMax="1.000000412216915">
          -0.510795 0.789321 -0.340677 -0.537379 0.830178 -0.148419
          -0.54347 0.839429 0.000017 -0.53752 0.830081 0.148454
          -0.511118 0.789098 0.340709 -0.409347 0.631568 0.658451
          -0.000474 -0.000328 1 0.408722 -0.631999 0.658425
          0.510795 -0.789321 0.340677 0.537379 -0.830178 0.148419
          0.54347 -0.839429 -0.000017 0.53752 -0.830081 -0.148454
          0.511118 -0.789098 -0.340709 0.409347 -0.631568 -0.658451
          0.000474 0.000328 -1 -0.408722 0.631999 -0.658425
          <InformationKey name="L2_NORM_RANGE" location="vtkDataArray" length="2">
            <Value index="0">
              0.9999999431
            </Value>
            <Value index="1">
              1.0000004122
            </Value>
          </InformationKey>
        </DataArray>
        <DataArray type="Float64" Name="spokeLength" format="ascii" RangeMin="2.697662" RangeMax="3.20761">
          2.963624 2.778198 2.697662 2.778198 2.963624 3.138113
          3.20761 3.138113 2.963624 2.778198 2.697662 2.778198
          2.963624 3.138113 3.20761 3.138113
        </DataArray>
      </PointData>
      <CellData>
      </CellData>
      <Points>
        <DataArray type="Float32" Name="Points" NumberOfComponents="3" format="ascii" RangeMin="137.1350123030595" RangeMax="158.81428575767703">
          -83.72399139404297 -95.4983139038086 55.1119270324707 -84.50611114501953 -94.29800415039062 62.403621673583984
          -84.78355407714844 -93.87859344482422 71.003173828125 -84.51426696777344 -94.30364227294922 79.60270690917969
          -83.73905944824219 -95.50872039794922 86.89435577392578 -82.57478332519531 -97.31221008300781 91.7702407836914
          -81.19373321533203 -99.44715881347656 93.48699188232422 -79.81105041503906 -101.58099365234375 91.77014923095703
          -78.64215087890625 -103.38127899169922 86.8941879272461 -77.86003112792969 -104.58158874511719 79.60249328613281
          -77.58258819580078 -105.0009994506836 71.00294494628906 -77.85187530517578 -104.5759506225586 62.40340805053711
          -78.6270751953125 -103.37086486816406 55.11176681518555 -79.7913589477539 -101.5673828125 50.23588180541992
          -81.17240905761719 -99.43242645263672 48.519126892089844 -82.55508422851562 -97.29859924316406 50.235965728759766
          <InformationKey name="L2_NORM_RANGE" location="vtkDataArray" length="2">
            <Value index="0">
              137.1350123
            </Value>
            <Value index="1">
              158.81428576
            </Value>
          </InformationKey>
        </DataArray>
      </Points>
      <Verts>
        <DataArray type="Int64" Name="connectivity" format="ascii" RangeMin="1e+299" RangeMax="-1e+299">
        </DataArray>
        <DataArray type="Int64" Name="offsets" format="ascii" RangeMin="1e+299" RangeMax="-1e+299">
        </DataArray>
      </Verts>
      <Lines>
        <DataArray type="Int64" Name="connectivity" format="ascii" RangeMin="0" RangeMax="15">
          0 1 2 3 4 5
          6 7 8 9 10 11
          12 13 14 15 0
        </DataArray>
        <DataArray type="Int64" Name="offsets" format="ascii" RangeMin="17" RangeMax="17">
          17
        </DataArray>
      </Lines>
      <Strips>
        <DataArray type="Int64" Name="connectivity" format="ascii" RangeMin="0" RangeMax="15">
        </DataArray>
        <DataArray type="Int64" Name="offsets" format="ascii" RangeMin="17" RangeMax="17">
        </DataArray>
      </Strips>
      <Polys>
        <DataArray type="Int64" Name="connectivity" format="ascii" RangeMin="0" RangeMax="15">
        </DataArray>
        <DataArray type="Int64" Name="offsets" format="ascii" RangeMin="17" RangeMax="17">
        </DataArray>
      </Polys>
    </Piece>
  </PolyData>
</VTKFile>
