<?xml version="1.0"?>
<VTKFile type="PolyData" version="0.1" byte_order="LittleEndian" header_type="UInt32" compressor="vtkZLibDataCompressor">
  <PolyData>
    <Piece NumberOfPoints="25" NumberOfVerts="0" NumberOfLines="0" NumberOfStrips="0" NumberOfPolys="16">
      <PointData Scalars="spokeLength" Vectors="spokeDirection">
        <DataArray type="Float64" Name="spokeDirection" NumberOfComponents="3" format="ascii" RangeMin="0.9999995798424117" RangeMax="1.0000004450444009">
          0.386657 0.90085 -0.197398 0.271791 0.957352 -0.09801
          0.234958 0.972005 0.00043 0.271698 0.957288 0.098895
          0.386469 0.90072 0.198355 0.578499 0.764074 -0.285535
          0.698066 0.713305 -0.062449 0.695215 0.718802 0.000565
          0.698006 0.713264 0.063578 0.578228 0.763886 0.286584
          0.793987 0.514056 -0.324548 0.838179 0.542662 -0.054529
          0.839428 0.54347 0.000576 0.838127 0.542626 0.05568
          0.793678 0.513843 0.325638 0.933911 0.215115 -0.285546
          0.93653 0.34498 -0.062457 0.940379 0.340128 0.000557
          0.93647 0.344939 0.063571 0.933639 0.214928 0.286572
          0.980191 -0.015906 -0.197417 0.984734 -0.143838 -0.098033
          0.98303 -0.183445 0.000406 0.98464 -0.143903 0.098872
          0.980003 -0.016036 0.198336
          <InformationKey name="L2_NORM_RANGE" location="vtkDataArray" length="2">
            <Value index="0">
              0.99999957984
            </Value>
            <Value index="1">
              1.000000445
            </Value>
          </InformationKey>
        </DataArray>
        <DataArray type="Float64" Name="spokeLength" format="ascii" RangeMin="1.970066" RangeMax="4.274143">
          2.288649 2.489435 2.568009 2.489435 2.288649 2.068464
          3.721364 3.917894 3.721364 2.068464 1.970066 4.063238
          4.274143 4.063238 1.970066 2.068464 3.721364 3.917894
          3.721364 2.068464 2.288649 2.489435 2.568009 2.489435
          2.288649
        </DataArray>
      </PointData>
      <CellData>
      </CellData>
      <Points>
        <DataArray type="Float64" Name="Points" NumberOfComponents="3" format="ascii" RangeMin="137.1438877417206" RangeMax="158.8025043064937">
          -83.713776 -95.514098 55.118742 -84.495362 -94.314608 62.406591
          -84.772681 -93.895381 71.003174 -84.503514 -94.320241 79.59974
          -83.72884 -95.524506 86.887539 -82.546913 -97.31124 50.249136
          -82.837354 -96.875915 62.778131 -82.977875 -96.667588 71.003117
          -82.845154 -96.881304 79.228094 -82.566595 -97.324839 91.75707
          -81.172418 -99.432435 48.539128 -81.179346 -99.437222 63.149671
          -81.183069 -99.439795 71.003059 -81.186793 -99.442368 78.856448
          -81.193721 -99.447155 93.466991 -79.799544 -101.554751 50.249049
          -79.520985 -101.998286 62.778025 -79.388264 -102.212002 71.003002
          -79.528785 -102.003675 79.227988 -79.819225 -101.56835 91.756982
          -78.637299 -103.355084 55.11858 -77.862625 -104.559349 62.406379
          -77.593458 -104.984209 71.002945 -77.870777 -104.564983 79.599528
          -78.652363 -103.365492 86.887377
          <InformationKey name="L2_NORM_RANGE" location="vtkDataArray" length="2">
            <Value index="0">
              137.14388774
            </Value>
            <Value index="1">
              158.80250431
            </Value>
          </InformationKey>
        </DataArray>
      </Points>
      <Verts>
        <DataArray type="Int64" Name="connectivity" format="ascii" RangeMin="0" RangeMax="15">
        </DataArray>
        <DataArray type="Int64" Name="offsets" format="ascii" RangeMin="17" RangeMax="17">
        </DataArray>
      </Verts>
      <Lines>
        <DataArray type="Int64" Name="connectivity" format="ascii" RangeMin="0" RangeMax="15">
        </DataArray>
        <DataArray type="Int64" Name="offsets" format="ascii" RangeMin="17" RangeMax="17">
        </DataArray>
      </Lines>
      <Strips>
        <DataArray type="Int64" Name="connectivity" format="ascii" RangeMin="0" RangeMax="15">
        </DataArray>
        <DataArray type="Int64" Name="offsets" format="ascii" RangeMin="17" RangeMax="17">
        </DataArray>
      </Strips>
      <Polys>
        <DataArray type="Int64" Name="connectivity" format="ascii" RangeMin="0" RangeMax="15">
          0 5 6 1 1 6
          7 2 2 7 8 3
          3 8 9 4 5 10
          11 6 6 11 12 7
          7 12 13 8 8 13
          14 9 10 15 16 11
          11 16 17 12 12 17
          18 13 13 18 19 14
          15 20 21 16 16 21
          22 17 17 22 23 18
          18 23 24 19
        </DataArray>
        <DataArray type="Int64" Name="offsets" format="ascii" RangeMin="17" RangeMax="17">
          4 8 12 16 20 24
          28 32 36 40 44 48
          52 56 60 64
        </DataArray>
      </Polys>
    </Piece>
  </PolyData>
</VTKFile>
