# vtk DataFile Version 4.2
vtk output
ASCII
DATASET POLYDATA
POINTS 1002 float
-117.429 -112.542 52.2378 -117.667 -123.613 63.8802 -116.674 -105.963 59.8217 
-117.721 -121.268 67.3024 -113.242 -117.499 59.4068 -114.64 -114.842 61.4541 
-123.089 -117.397 59.8398 -123.38 -114.648 62.9827 -109.788 -126.72 72.4117 
-112.348 -104.533 51.7631 -121.898 -126.016 69.3314 -119.68 -104.871 52.0364 
-117.511 -113.393 53.0715 -117.613 -114.47 54.1936 -117.724 -115.653 55.4649 
-117.832 -116.897 56.8166 -117.922 -118.172 58.1951 -117.975 -119.445 59.5525 
-117.976 -120.68 60.8469 -117.917 -121.833 62.0402 -117.803 -122.85 63.0871 
-117.048 -112.757 52.5459 -116.575 -113.062 53.0302 -116.072 -113.447 53.6359 
-115.569 -113.912 54.3363 -115.084 -114.45 55.1181 -114.631 -115.051 55.9714 
-114.215 -115.697 56.8787 -113.837 -116.361 57.8049 -113.503 -116.994 58.6897 
-117.86 -112.866 52.5436 -118.404 -113.276 53.062 -119.002 -113.723 53.7541 
-119.627 -114.198 54.5833 -120.26 -114.703 55.5071 -120.886 -115.239 56.4801 
-121.494 -115.804 57.4563 -122.08 -116.382 58.3873 -122.634 -116.94 59.216 
-117.1 -111.815 51.6703 -116.655 -110.893 51.0712 -116.13 -109.893 50.5485 
-115.54 -108.87 50.1559 -114.908 -107.862 49.9343 -114.268 -106.908 49.916 
-113.654 -106.051 50.1198 -113.102 -105.337 50.5405 -112.648 -104.814 51.1338 
-117.612 -111.89 51.6555 -117.842 -111.055 51.025 -118.089 -110.121 50.4731 
-118.339 -109.127 50.0789 -118.588 -108.118 49.9005 -118.834 -107.156 49.9687 
-119.076 -106.304 50.2795 -119.31 -105.615 50.7919 -119.522 -105.127 51.4265 
-117.237 -123.316 63.7694 -116.721 -122.885 63.5757 -116.196 -122.362 63.2914 
-115.69 -121.76 62.9092 -115.212 -121.088 62.4309 -114.76 -120.363 61.8676 
-114.326 -119.607 61.2389 -113.911 -118.847 60.5763 -113.532 -118.116 59.9306 
-118.193 -123.39 63.4866 -118.85 -123.034 63.0029 -119.559 -122.551 62.5127 
-120.277 -121.947 62.0492 -120.964 -121.242 61.6211 -121.587 -120.465 61.2235 
-122.122 -119.647 60.8465 -122.555 -118.823 60.4825 -122.882 -118.038 60.1347 
-117.205 -124.156 64.5866 -116.534 -124.805 65.4632 -115.69 -125.476 66.4064 
-114.696 -126.115 67.3865 -113.599 -126.66 68.3938 -112.477 -127.053 69.414 
-111.433 -127.248 70.4088 -110.576 -127.231 71.3081 -110.005 -127.027 72.015 
-117.838 -124.191 64.392 -118.083 -124.84 65.0043 -118.406 -125.446 65.6474 
-118.82 -125.956 66.299 -119.322 -126.34 66.9454 -119.892 -126.575 67.5727 
-120.491 -126.648 68.1612 -121.066 -126.556 68.6811 -121.561 -126.322 69.0902 
-116.968 -106.819 60.3749 -117.353 -108.081 61.0315 -117.745 -109.647 61.7257 
-118.079 -111.446 62.4556 -118.305 -113.385 63.2316 -118.394 -115.351 64.0564 
-118.344 -117.226 64.9168 -118.181 -118.906 65.7844 -117.948 -120.299 66.615 
-116.217 -106.288 59.9996 -115.748 -106.849 60.1789 -115.385 -107.607 60.3147 
-115.168 -108.531 60.3961 -115.079 -109.579 60.4422 -115.064 -110.707 60.4956 
-115.055 -111.863 60.6067 -114.992 -112.994 60.8121 -114.845 -114.032 61.1151 
-117.338 -106.272 59.9869 -118.136 -106.795 60.2291 -118.931 -107.496 60.5311 
-119.677 -108.363 60.8723 -120.366 -109.373 61.2339 -121.013 -110.486 61.6059 
-121.641 -111.646 61.9842 -122.267 -112.785 62.3608 -122.876 -113.829 62.7129 
-116.096 -105.426 59.3562 -115.373 -104.864 58.742 -114.624 -104.353 58.0119 
-113.925 -103.925 57.1567 -113.336 -103.612 56.182 -112.887 -103.449 55.1268 
-112.583 -103.468 54.0628 -112.408 -103.685 53.0812 -112.337 -104.074 52.2781 
-116.846 -105.43 59.3079 -117.137 -104.893 58.5823 -117.507 -104.426 57.7215 
-117.918 -104.056 56.7753 -118.332 -103.806 55.7904 -118.719 -103.707 54.8136 
-119.059 -103.779 53.8949 -119.336 -104.024 53.0869 -119.547 -104.418 52.4438 
-117.313 -120.93 67.1741 -116.857 -120.413 66.9482 -116.422 -119.783 66.5988 
-116.028 -119.079 66.106 -115.682 -118.329 65.4681 -115.386 -117.559 64.7034 
-115.142 -116.792 63.8486 -114.945 -116.053 62.9586 -114.783 -115.376 62.1127 
-118.298 -120.933 66.9874 -119.019 -120.41 66.6019 -119.782 -119.755 66.1913 
-120.54 -119.006 65.7683 -121.261 -118.198 65.3344 -121.915 -117.368 64.8861 
-122.475 -116.555 64.4185 -122.916 -115.797 63.9298 -123.221 -115.136 63.4309 
-117.196 -121.903 67.9614 -116.479 -122.584 68.8474 -115.63 -123.229 69.8455 
-114.68 -123.824 70.861 -113.655 -124.38 71.7844 -112.602 -124.917 72.5028 
-111.59 -125.448 72.9267 -110.713 -125.966 73.0177 -110.078 -126.423 72.8053 
-117.86 -121.902 67.8095 -118.103 -122.565 68.4449 -118.461 -123.161 69.1118 
-118.93 -123.683 69.7312 -119.486 -124.155 70.2149 -120.088 -124.608 70.4836 
-120.681 -125.053 70.4921 -121.211 -125.474 70.2467 -121.634 -125.818 69.8119 
-112.94 -117.379 59.5411 -112.658 -117.163 59.7372 -112.505 -116.861 59.9826 
-112.526 -116.502 60.2608 -112.722 -116.128 60.5457 -113.058 -115.777 60.8092 
-113.476 -115.473 61.0313 -113.919 -115.217 61.206 -114.332 -115.005 61.3419 
-113.139 -118.39 60.458 -112.942 -119.531 61.7885 -112.631 -120.801 63.2432 
-112.196 -122.125 64.7654 -111.651 -123.417 66.3135 -111.042 -124.579 67.8398 
-110.453 -125.521 69.2882 -109.989 -126.19 70.5955 -109.751 -126.579 71.6832 
-113.118 -116.525 58.4456 -112.957 -115.242 57.2728 -112.786 -113.788 56.0821 
-112.62 -112.244 54.9741 -112.47 -110.681 54.0096 -112.345 -109.163 53.2175 
-112.258 -107.738 52.6032 -112.224 -106.441 52.1599 -112.255 -105.328 51.8796 
-114.402 -115.961 62.3237 -113.965 -117.342 63.5604 -113.39 -118.804 64.9986 
-112.725 -120.279 66.5222 -112.012 -121.72 68.0284 -111.291 -123.083 69.4221 
-110.625 -124.319 70.6164 -110.097 -125.375 71.5401 -109.799 -126.2 72.1464 
-114.55 -113.808 60.6475 -114.275 -112.513 59.7585 -113.821 -111.139 58.8859 
-113.252 -109.777 58.0035 -112.678 -108.489 57.0524 -112.216 -107.323 55.994 
-111.955 -106.315 54.8409 -111.922 -105.494 53.6628 -112.085 -104.885 52.5748 
-123.467 -117.275 60.007 -123.903 -117.099 60.2306 -124.296 -116.871 60.5174 
-124.576 -116.59 60.8747 -124.698 -116.262 61.2902 -124.647 -115.901 61.7313 
-124.438 -115.533 62.155 -124.113 -115.182 62.522 -123.731 -114.875 62.8055 
-123.422 -118.263 60.5977 -123.801 -119.356 61.4916 -124.121 -120.525 62.4224 
-124.303 -121.691 63.381 -124.293 -122.793 64.3798 -124.07 -123.784 65.4262 
-123.657 -124.625 66.5073 -123.102 -125.29 67.5818 -122.476 -125.761 68.5739 
-122.957 -116.46 59.1264 -122.731 -115.268 58.1769 -122.422 -113.955 57.1201 
-122.043 -112.563 56.0369 -121.619 -111.116 54.9968 -121.179 -109.645 54.0591 
-120.751 -108.199 53.2703 -120.351 -106.848 52.6609 -119.986 -105.687 52.2462 
-123.783 -115.754 63.5121 -124.217 -117.127 64.1607 -124.556 -118.565 64.8702 
-124.718 -119.977 65.6221 -124.653 -121.313 66.3954 -124.356 -122.545 67.159 
-123.859 -123.658 67.8755 -123.223 -124.639 68.5052 -122.527 -125.455 69.0083 
-123.146 -113.69 62.2997 -122.791 -112.519 61.3493 -122.378 -111.289 60.2231 
-121.949 -110.054 58.9777 -121.534 -108.855 57.6708 -121.139 -107.732 56.3586 
-120.756 -106.73 55.0879 -120.377 -105.89 53.8973 -120.004 -105.253 52.8369 
-110.217 -126.921 72.7327 -111.074 -127.053 72.9217 -112.274 -127.12 72.9212 
-113.715 -127.142 72.7232 -115.292 -127.124 72.3462 -116.898 -127.052 71.8279 
-118.439 -126.906 71.2156 -119.84 -126.673 70.5564 -121.033 -126.359 69.8986 
-112.72 -104.014 51.3353 -113.319 -103.512 50.8886 -114.087 -103.134 50.5086 
-114.978 -102.925 50.2535 -115.937 -102.901 50.1702 -116.898 -103.053 50.282 
-117.799 -103.36 50.5794 -118.589 -103.797 51.0212 -119.232 -104.33 51.5424 
-117.088 -113.813 53.5963 -116.623 -114.244 54.2023 -117.166 -114.98 54.8095 
-116.146 -114.715 54.8953 -116.704 -115.487 55.4958 -117.26 -116.215 56.1361 
-115.673 -115.233 55.6694 -116.24 -116.01 56.2604 -116.794 -116.765 56.8815 
-117.351 -117.486 57.5279 -115.215 -115.796 56.5136 -115.78 -116.556 57.0974 
-116.328 -117.315 57.7025 -116.87 -118.054 58.3176 -117.417 -118.764 58.9355 
-114.774 -116.396 57.4071 -115.325 -117.127 57.987 -115.86 -117.873 58.5839 
-116.386 -118.614 59.1769 -116.911 -119.332 59.7536 -117.441 -120.02 60.309 
-114.347 -117.014 58.3141 -114.866 -117.716 58.8951 -115.378 -118.446 59.4949 
-115.884 -119.181 60.0801 -116.389 -119.897 60.631 -116.899 -120.579 61.1377 
-117.413 -121.223 61.6015 -113.932 -117.611 59.181 -114.396 -118.304 59.7755 
-114.87 -119.031 60.3939 -115.347 -119.765 60.9897 -115.83 -120.479 61.5354 
-116.325 -121.152 62.0151 -116.832 -121.772 62.4234 -117.335 -122.335 62.7696 
-116.581 -111.953 51.9903 -116.057 -111.046 51.4636 -116.038 -112.224 52.4927 
-115.475 -110.094 51.0177 -115.458 -111.336 52.0092 -115.491 -112.608 53.1155 
-114.85 -109.135 50.6955 -114.839 -110.43 51.6129 -114.878 -111.751 52.6602 
-114.963 -113.095 53.8295 -114.212 -108.199 50.5359 -114.204 -109.528 51.3421 
-114.246 -110.891 52.3015 -114.34 -112.279 53.3987 -114.475 -113.674 54.6263 
-113.598 -107.315 50.5722 -113.588 -108.652 51.2376 -113.63 -110.041 52.0805 
-113.725 -111.468 53.0813 -113.868 -112.908 54.2279 -114.041 -114.327 55.5037 
-113.045 -106.521 50.8218 -113.032 -107.825 51.3336 -113.07 -109.215 52.04 
-113.161 -110.667 52.922 -113.302 -112.15 53.9667 -113.48 -113.622 55.1548 
-113.67 -115.035 56.4507 -112.587 -105.852 51.2741 -112.569 -107.079 51.6453 
-112.604 -108.437 52.2116 -112.691 -109.89 52.9606 -112.823 -111.403 53.885 
-112.99 -112.927 54.9686 -113.179 -114.403 56.1746 -113.362 -115.773 57.4406 
-112.008 -105.915 52.8424 -111.942 -106.665 53.9571 -112.039 -107.142 53.1969 
-112.09 -107.588 55.1249 -112.057 -107.989 54.338 -112.136 -108.52 53.6868 
-112.439 -108.672 56.2659 -112.277 -108.99 55.518 -112.209 -109.442 54.8597 
-112.266 -110.015 54.3426 -112.924 -109.887 57.3386 -112.647 -110.128 56.6837 
-112.444 -110.501 56.0744 -112.351 -110.996 55.5561 -112.404 -111.589 55.1764 
-113.441 -111.192 58.3493 -113.081 -111.371 57.8151 -112.768 -111.673 57.296 
-112.545 -112.092 56.8215 -112.457 -112.607 56.4333 -112.536 -113.184 56.1749 
-113.883 -112.531 59.3367 -113.479 -112.672 58.9275 -113.093 -112.923 58.5174 
-112.772 -113.277 58.1165 -112.57 -113.718 57.7528 -112.529 -114.214 57.4649 
[...]
POINT_DATA 1002
FIELD FieldData 2
Color_Map_Phi 1 1002 float
6.28319 3.14159 6.28319 3.14159 4.71239 4.71239 1.5708 1.5708 3.69517 
5.72961 2.58802 0.553574 6.28319 6.28319 6.28319 6.28319 3.14159 3.14159 
3.14159 3.14159 3.14159 6.1053 5.8988 5.67687 5.45995 5.26596 5.10322 
4.97131 4.86569 4.78095 0.177881 0.384387 0.606312 0.823235 1.01722 1.17997 
1.31187 1.4175 1.50223 6.18928 6.10703 6.03531 5.97283 5.91832 5.87061 
5.82869 5.79168 5.75886 0.0939024 0.176153 0.247873 0.310351 0.364864 0.412573 
0.454497 0.491504 0.524326 3.31947 3.52598 3.7479 3.96483 4.15881 4.32156 
4.45346 4.55909 4.64383 2.96371 2.75721 2.53528 2.31836 2.12437 1.96162 
1.82972 1.72409 1.63936 3.2355 3.31775 3.38947 3.45194 3.50646 3.55417 
3.59609 3.6331 3.66592 3.04769 2.96544 2.89372 2.83124 2.77673 2.72902 
2.6871 2.65009 2.61727 6.28319 6.28319 6.28319 6.28319 3.14159 3.14159 
3.14159 3.14159 3.14159 6.1053 5.8988 5.67687 5.45995 5.26596 5.10322 
4.97131 4.86569 4.78095 0.177881 0.384387 0.606312 0.823235 1.01722 1.17997 
1.31187 1.4175 1.50223 6.18928 6.10703 6.03531 5.97283 5.91832 5.87061 
5.82869 5.79168 5.75886 0.0939024 0.176153 0.247873 0.310351 0.364864 0.412573 
0.454497 0.491504 0.524326 3.31947 3.52598 3.7479 3.96483 4.15881 4.32156 
4.45346 4.55909 4.64383 2.96371 2.75721 2.53528 2.31836 2.12437 1.96162 
1.82972 1.72409 1.63936 3.2355 3.31775 3.38947 3.45194 3.50646 3.55417 
3.59609 3.6331 3.66592 3.04769 2.96544 2.89372 2.83124 2.77673 2.72902 
2.6871 2.65009 2.61727 4.71239 4.71239 4.71239 4.71239 4.71239 4.71239 
4.71239 4.71239 4.71239 4.60879 4.49914 4.3857 4.27128 4.15881 4.05096 
3.94976 3.85646 3.77161 4.81599 4.92564 5.03907 5.1535 5.26596 5.37381 
5.47502 5.56831 5.65317 4.60879 4.49914 4.3857 4.27128 4.15881 4.05096 
3.94976 3.85646 3.77161 4.81599 4.92564 5.03907 5.1535 5.26596 5.37381 
5.47502 5.56831 5.65317 1.5708 1.5708 1.5708 1.5708 1.5708 1.5708 
1.5708 1.5708 1.5708 1.6744 1.78405 1.89748 2.01191 2.12437 2.23222 
2.33343 2.42672 2.51157 1.4672 1.35755 1.24411 1.12969 1.01722 0.909371 
0.808166 0.714871 0.63002 1.6744 1.78405 1.89748 2.01191 2.12437 2.23222 
2.33343 2.42672 2.51157 1.4672 1.35755 1.24411 1.12969 1.01722 0.909371 
0.808166 0.714871 0.63002 3.60077 3.49669 3.38395 3.26458 3.14159 3.01861 
2.89924 2.78649 2.68241 5.82401 5.92808 6.04083 6.1602 6.28319 0.122983 
0.242354 0.355101 0.459179 6.05603 5.78856 5.97021 5.51259 5.60297 5.78856 
5.26596 5.26596 5.26596 5.26596 5.06749 5.0121 4.91556 4.71239 4.15881 
4.91556 4.83537 4.71239 4.50922 4.15881 3.63622 4.80045 4.71239 4.58941 
4.41268 4.15881 3.82181 3.45456 4.71239 4.62433 4.50922 4.35729 4.15881 
3.91219 3.63622 3.36875 6.01742 5.94343 5.82633 5.88092 5.76745 5.62798 
5.8278 5.71897 5.58911 5.43724 5.78235 5.67854 5.55757 5.41926 5.26596 
5.74316 5.64441 5.5315 5.40467 5.26596 5.11955 5.70914 5.61528 5.50962 
5.3926 5.26596 5.13292 4.99789 5.67937 5.59016 5.49102 5.38246 5.26596 
5.14407 5.02016 4.89798 5.56831 5.47502 5.47502 5.37381 5.37381 5.37381 
5.26596 5.26596 5.26596 5.26596 5.1535 5.1535 5.1535 5.1535 5.1535 
5.03907 5.03907 5.03907 5.03907 5.03907 5.03907 4.92564 4.92564 4.92564 
4.92564 4.92564 4.92564 4.92564 4.81599 4.81599 4.81599 4.81599 4.81599 
4.81599 4.81599 4.81599 4.60879 4.60879 4.49914 4.60879 4.49914 4.3857 
4.60879 4.49914 4.3857 4.27128 4.60879 4.49914 4.3857 4.27128 4.15881 
4.60879 4.49914 4.3857 4.27128 4.15881 4.05096 4.60879 4.49914 4.3857 
4.27128 4.15881 4.05096 3.94976 4.60879 4.49914 4.3857 4.27128 4.15881 
4.05096 3.94976 3.85646 4.5268 4.40462 4.42689 4.28071 4.29185 4.30523 
4.15881 4.15881 4.15881 4.15881 4.04232 4.03217 4.02011 4.00552 3.98753 
3.93376 3.91515 3.89328 3.86721 3.83566 3.7968 3.83461 3.8095 3.78037 
3.74624 3.70581 3.65733 3.59845 3.7454 3.71564 3.68161 3.64243 3.59698 
3.54386 3.48135 3.40735 3.56428 3.45246 3.52338 3.33203 3.40312 3.47739 
3.20576 3.27463 3.34802 3.42551 3.07742 3.14159 3.21128 3.28647 3.36688 
2.95116 3.00855 3.0719 3.14159 3.21784 3.3006 2.83072 2.88006 2.93517 
2.99672 3.06535 3.14159 3.22575 2.7189 2.7598 2.8058 2.85768 2.9163 
2.98259 3.05743 3.14159 3.56428 3.52338 3.45246 3.47739 3.40312 3.33203 
3.42551 3.34802 3.27463 3.20576 3.36688 3.28647 3.21128 3.14159 3.07742 
3.3006 3.21784 3.14159 3.0719 3.00855 2.95116 3.22575 3.14159 3.06535 
2.99672 2.93517 2.88006 2.83072 3.14159 3.05743 2.98259 2.9163 2.85768 
2.8058 2.7598 2.7189 4.5268 4.42689 4.40462 4.30523 4.29185 4.28071 
4.15881 4.15881 4.15881 4.15881 3.98753 4.00552 4.02011 4.03217 4.04232 
3.7968 3.83566 3.86721 3.89328 3.91515 3.93376 3.59845 3.65733 3.70581 
3.74624 3.78037 3.8095 3.83461 3.40735 3.48135 3.54386 3.59698 3.64243 
3.68161 3.71564 3.7454 4.71239 4.80045 4.62433 4.91556 4.71239 4.50922 
5.06749 4.83537 4.58941 4.35729 5.26596 5.0121 4.71239 4.41268 4.15881 
5.51259 5.26596 4.91556 4.50922 4.15881 3.91219 5.78856 5.60297 5.26596 
4.71239 4.15881 3.82181 3.63622 6.05603 5.97021 5.78856 5.26596 4.15881 
3.63622 3.45456 3.36875 0.227158 0.494626 0.312971 0.770593 0.680215 0.494626 
1.01722 1.01722 1.01722 1.01722 1.2157 1.27109 1.36763 1.5708 2.12437 
1.36763 1.44781 1.5708 1.77397 2.12437 2.64697 1.48273 1.5708 1.69378 
1.8705 2.12437 2.46138 2.82862 1.5708 1.65886 1.77397 1.9259 2.12437 
2.371 2.64697 2.91443 1.75639 1.87857 1.8563 2.00248 1.99133 1.97796 
2.12437 2.12437 2.12437 2.12437 2.24087 2.25101 2.26308 2.27767 2.29565 
2.34943 2.36803 2.38991 2.41597 2.44752 2.48639 2.44857 2.47368 2.50281 
2.53694 2.57738 2.62586 2.68474 2.53778 2.56754 2.60157 2.64076 2.68621 
2.73933 2.80184 2.87583 1.6744 1.6744 1.78405 1.6744 1.78405 1.89748 
1.6744 1.78405 1.89748 2.01191 1.6744 1.78405 1.89748 2.01191 2.12437 
1.6744 1.78405 1.89748 2.01191 2.12437 2.23222 1.6744 1.78405 1.89748 
2.01191 2.12437 2.23222 2.33343 1.6744 1.78405 1.89748 2.01191 2.12437 
2.23222 2.33343 2.42672 1.4672 1.35755 1.4672 1.24411 1.35755 1.4672 
1.12969 1.24411 1.35755 1.4672 1.01722 1.12969 1.24411 1.35755 1.4672 
0.909371 1.01722 1.12969 1.24411 1.35755 1.4672 0.808166 0.909371 1.01722 
1.12969 1.24411 1.35755 1.4672 0.714871 0.808166 0.909371 1.01722 1.12969 
1.24411 1.35755 1.4672 0.603812 0.57405 0.693022 0.540021 0.667908 0.792164 
0.500837 0.638778 0.773562 0.900726 0.455383 0.604649 0.751687 0.890581 1.01722 
0.402264 0.564217 0.725619 0.878514 1.01722 1.13912 0.339753 0.515737 0.694072 
0.863926 1.01722 1.15026 1.26302 0.265762 0.456853 0.655207 0.845941 1.01722 
1.16363 1.28529 1.38521 0.227158 0.312971 0.494626 0.494626 0.680215 0.770593 
1.01722 1.01722 1.01722 1.01722 2.12437 1.5708 1.36763 1.27109 1.2157 
2.64697 2.12437 1.77397 1.5708 1.44781 1.36763 2.82862 2.46138 2.12437 
1.8705 1.69378 1.5708 1.48273 2.91443 2.64697 2.371 2.12437 1.9259 
1.77397 1.65886 1.5708 1.75639 1.8563 1.87857 1.97796 1.99133 2.00248 
2.12437 2.12437 2.12437 2.12437 2.29565 2.27767 2.26308 2.25101 2.24087 
2.48639 2.44752 2.41597 2.38991 2.36803 2.34943 2.68474 2.62586 2.57738 
2.53694 2.50281 2.47368 2.44857 2.87583 2.80184 2.73933 2.68621 2.64076 
2.60157 2.56754 2.53778 5.86049 5.90139 5.97231 5.94739 6.02165 6.09275 
5.99927 6.07676 6.15015 6.21902 6.0579 6.13831 6.2135 0 0.0641696 
6.12418 6.20694 6.28319 0.069689 0.13304 0.190437 6.19903 0 0.0762451 
0.144876 0.206423 0.261531 0.310872 0 0.0841597 0.159004 0.225289 0.283913 
0.335793 0.381792 0.422692 5.86049 5.97231 5.90139 6.09275 6.02165 5.94739 
6.21902 6.15015 6.07676 5.99927 0.0641696 0 6.2135 6.13831 6.0579 
0.190437 0.13304 0.069689 6.28319 6.20694 6.12418 0.310872 0.261531 0.206423 
0.144876 0.0762451 6.28319 6.19903 0.422692 0.381792 0.335793 0.283913 0.225289 
0.159004 0.0841597 0 5.67937 5.70914 5.59016 5.74316 5.61528 5.49102 
5.78235 5.64441 5.50962 5.38246 5.8278 5.67854 5.5315 5.3926 5.26596 
5.88092 5.71897 5.55757 5.40467 5.26596 5.14407 5.94343 5.76745 5.58911 
5.41926 5.26596 5.13292 5.02016 6.01742 5.82633 5.62798 5.43724 5.26596 
5.11955 4.99789 4.89798 1.38521 1.28529 1.26302 1.16363 1.15026 1.13912 
1.01722 1.01722 1.01722 1.01722 0.845941 0.863926 0.878514 0.890581 0.900726 
0.655207 0.694072 0.725619 0.751687 0.773562 0.792164 0.456853 0.515737 0.564217 
0.604649 0.638778 0.667908 0.693022 0.265762 0.339753 0.402264 0.455383 0.500837 
0.540021 0.57405 0.603812 
Color_Map_Theta 1 1002 float
2.58802 2.58802 0.553574 0.553574 2.12437 1.01722 2.12437 1.01722 1.5708 
1.5708 1.5708 1.5708 2.68241 2.78649 2.89924 3.01861 3.14159 3.01861 
2.89924 2.78649 2.68241 2.61035 2.61791 2.60515 2.56958 2.51327 2.44184 
2.36202 2.27983 2.1997 2.61035 2.61791 2.60515 2.56958 2.51327 2.44184 
2.36202 2.27983 2.1997 2.50947 2.41899 2.31794 2.20864 2.0944 1.97902 
1.86631 1.75944 1.66056 2.50947 2.41899 2.31794 2.20864 2.0944 1.97902 
1.86631 1.75944 1.66056 2.61035 2.61791 2.60515 2.56958 2.51327 2.44184 
2.36202 2.27983 2.1997 2.61035 2.61791 2.60515 2.56958 2.51327 2.44184 
2.36202 2.27983 2.1997 2.50947 2.41899 2.31794 2.20864 2.0944 1.97902 
1.86631 1.75944 1.66056 2.50947 2.41899 2.31794 2.20864 2.0944 1.97902 
1.86631 1.75944 1.66056 0.459179 0.355101 0.242354 0.122983 0 0.122983 
0.242354 0.355101 0.459179 0.531246 0.523681 0.536438 0.57201 0.628319 0.699757 
0.779574 0.86176 0.941896 0.531246 0.523681 0.536438 0.57201 0.628319 0.699757 
0.779574 0.86176 0.941896 0.632123 0.7226 0.823657 0.932948 1.0472 1.16257 
1.27528 1.38216 1.48103 0.632123 0.7226 0.823657 0.932948 1.0472 1.16257 
1.27528 1.38216 1.48103 0.531246 0.523681 0.536438 0.57201 0.628319 0.699757 
0.779574 0.86176 0.941896 0.531246 0.523681 0.536438 0.57201 0.628319 0.699757 
0.779574 0.86176 0.941896 0.632123 0.7226 0.823657 0.932948 1.0472 1.16257 
1.27528 1.38216 1.48103 0.632123 0.7226 0.823657 0.932948 1.0472 1.16257 
1.27528 1.38216 1.48103 2.02998 1.9259 1.81315 1.69378 1.5708 1.44781 
1.32844 1.2157 1.11162 2.0928 2.05283 2.00422 1.94767 1.88496 1.81867 
1.75177 1.68695 1.62623 2.0928 2.05283 2.00422 1.94767 1.88496 1.81867 
1.75177 1.68695 1.62623 1.0488 1.08876 1.13737 1.19392 1.25664 1.32292 
1.38982 1.45464 1.51537 1.0488 1.08876 1.13737 1.19392 1.25664 1.32292 
1.38982 1.45464 1.51537 2.02998 1.9259 1.81315 1.69378 1.5708 1.44781 
1.32844 1.2157 1.11162 2.0928 2.05283 2.00422 1.94767 1.88496 1.81867 
1.75177 1.68695 1.62623 2.0928 2.05283 2.00422 1.94767 1.88496 1.81867 
1.75177 1.68695 1.62623 1.0488 1.08876 1.13737 1.19392 1.25664 1.32292 
1.38982 1.45464 1.51537 1.0488 1.08876 1.13737 1.19392 1.25664 1.32292 
1.38982 1.45464 1.51537 1.5708 1.5708 1.5708 1.5708 1.5708 1.5708 
1.5708 1.5708 1.5708 1.5708 1.5708 1.5708 1.5708 1.5708 1.5708 
1.5708 1.5708 1.5708 2.70908 2.71362 2.81592 2.68886 2.81002 2.92597 
2.6349 2.76254 2.89233 3.01997 2.55881 2.68262 2.80854 2.92834 3.01997 
2.47007 2.58462 2.70048 2.80854 2.89233 2.92597 2.37702 2.48017 2.58462 
2.68262 2.76254 2.81002 2.81592 2.28567 2.37702 2.47007 2.55881 2.6349 
2.68886 2.71362 2.70908 2.52097 2.4195 2.51718 2.30791 2.40503 2.49426 
2.18928 2.28408 2.3734 2.45144 2.06758 2.15805 2.24572 2.32523 2.39165 
1.94707 2.03138 2.11543 2.19453 2.26401 2.32035 1.83164 1.90847 1.98711 
2.06376 2.13422 2.1949 2.24359 1.72413 1.79288 1.86489 1.93728 2.00658 
2.06938 2.12312 2.16654 1.5708 1.50988 1.63171 1.44492 1.5708 1.69667 
1.37826 1.5059 1.63569 1.76333 1.31281 1.43962 1.5708 1.70197 1.82878 
1.25155 1.37501 1.50478 1.63681 1.76659 1.89004 1.19686 1.31493 1.44074 
1.5708 1.70086 1.82666 1.94473 1.15011 1.26149 1.38136 1.50697 1.63462 
1.76024 1.88011 1.99148 1.99148 1.88011 1.94473 1.76024 1.82666 1.89004 
1.63462 1.70086 1.76659 1.82878 1.50697 1.5708 1.63681 1.70197 1.76333 
1.38136 1.44074 1.50478 1.5708 1.63569 1.69667 1.26149 1.31493 1.37501 
1.43962 1.5059 1.5708 1.63171 1.15011 1.19686 1.25155 1.31281 1.37826 
1.44492 1.50988 1.5708 2.16654 2.12312 2.24359 2.06938 2.1949 2.32035 
2.00658 2.13422 2.26401 2.39165 1.93728 2.06376 2.19453 2.32523 2.45144 
1.86489 1.98711 2.11543 2.24572 2.3734 2.49426 1.79288 1.90847 2.03138 
2.15805 2.28408 2.40503 2.51718 1.72413 1.83164 1.94707 2.06758 2.18928 
2.30791 2.4195 2.52097 1.66533 1.66946 1.76911 1.67254 1.777 1.88041 
1.67418 1.78222 1.89102 1.99634 1.67418 1.78405 1.89674 2.00785 2.11299 
1.67254 1.78222 1.89674 2.01191 2.12307 2.22608 1.66946 1.777 1.89102 
2.00785 2.12307 2.23222 2.33166 1.66533 1.76911 1.88041 1.99634 2.11299 
2.22608 2.33166 2.42672 1.47626 1.37249 1.47213 1.26118 1.36459 1.46906 
1.14526 1.25058 1.35938 1.46741 1.0286 1.13374 1.24485 1.35755 1.46741 
0.915514 1.01852 1.12969 1.24485 1.35938 1.46906 0.809937 0.909371 1.01852 
1.13374 1.25058 1.36459 1.47213 0.714871 0.809937 0.915514 1.0286 1.14526 
1.26118 1.37249 1.47626 0.975055 0.898002 1.01847 0.821245 0.946693 1.07221 
0.749941 0.877585 1.00737 1.13501 0.690152 0.816367 0.94706 1.07784 1.20431 
0.647337 0.768195 0.895868 1.02616 1.15448 1.2767 0.624416 0.736561 0.857515 
0.983547 1.11021 1.23313 1.34871 0.620619 0.722093 0.833684 0.952313 1.07402 
1.19452 1.30996 1.41746 0.855925 0.764569 0.764569 0.671524 0.661425 0.671524 
0.582786 0.556971 0.556971 0.582786 0.506696 0.458968 0.441109 0.458968 0.506696 
0.45273 0.379052 0.333054 0.333054 0.379052 0.45273 0.427969 0.331576 0.249267 
0.21325 0.249267 0.331576 0.427969 0.432512 0.325669 0.215619 0.121622 0.121622 
0.215619 0.325669 0.432512 0.432512 0.427969 0.325669 0.45273 0.331576 0.215619 
0.506696 0.379052 0.249267 0.121622 0.582786 0.458968 0.333054 0.21325 0.121622 
0.671524 0.556971 0.441109 0.333054 0.249267 0.215619 0.764569 0.661425 0.556971 
0.458968 0.379052 0.331576 0.325669 0.855925 0.764569 0.671524 0.582786 0.506696 
0.45273 0.427969 0.432512 0.975055 1.01847 0.898002 1.07221 0.946693 0.821245 
1.13501 1.00737 0.877585 0.749941 1.20431 1.07784 0.94706 0.816367 0.690152 
1.2767 1.15448 1.02616 0.895868 0.768195 0.647337 1.34871 1.23313 1.11021 
0.983547 0.857515 0.736561 0.624416 1.41746 1.30996 1.19452 1.07402 0.952313 
0.833684 0.722093 0.620619 1.15011 1.26149 1.19686 1.38136 1.31493 1.25155 
1.50697 1.44074 1.37501 1.31281 1.63462 1.5708 1.50478 1.43962 1.37826 
1.76024 1.70086 1.63681 1.5708 1.5059 1.44492 1.88011 1.82666 1.76659 
1.70197 1.63569 1.5708 1.50988 1.99148 1.94473 1.89004 1.82878 1.76333 
1.69667 1.63171 1.5708 1.15011 1.19686 1.26149 1.25155 1.31493 1.38136 
1.31281 1.37501 1.44074 1.50697 1.37826 1.43962 1.50478 1.5708 1.63462 
1.44492 1.5059 1.5708 1.63681 1.70086 1.76024 1.50988 1.5708 1.63569 
1.70197 1.76659 1.82666 1.88011 1.5708 1.63171 1.69667 1.76333 1.82878 
1.89004 1.94473 1.99148 1.72413 1.83164 1.79288 1.94707 1.90847 1.86489 
2.06758 2.03138 1.98711 1.93728 2.18928 2.15805 2.11543 2.06376 2.00658 
2.30791 2.28408 2.24572 2.19453 2.13422 2.06938 2.4195 2.40503 2.3734 
2.32523 2.26401 2.1949 2.12312 2.52097 2.51718 2.49426 2.45144 2.39165 
2.32035 2.24359 2.16654 2.70908 2.81592 2.71362 2.92597 2.81002 2.68886 
3.01997 2.89233 2.76254 2.6349 3.01997 2.92834 2.80854 2.68262 2.55881 
2.92597 2.89233 2.80854 2.70048 2.58462 2.47007 2.81592 2.81002 2.76254 
2.68262 2.58462 2.48017 2.37702 2.70908 2.71362 2.68886 2.6349 2.55881 
2.47007 2.37702 2.28567 2.16654 2.24359 2.12312 2.32035 2.1949 2.06938 
2.39165 2.26401 2.13422 2.00658 2.45144 2.32523 2.19453 2.06376 1.93728 
2.49426 2.3734 2.24572 2.11543 1.98711 1.86489 2.51718 2.40503 2.28408 
2.15805 2.03138 1.90847 1.79288 2.52097 2.4195 2.30791 2.18928 2.06758 
1.94707 1.83164 1.72413 1.66533 1.76911 1.66946 1.88041 1.777 1.67254 
1.99634 1.89102 1.78222 1.67418 2.11299 2.00785 1.89674 1.78405 1.67418 
2.22608 2.12307 2.01191 1.89674 1.78222 1.67254 2.33166 2.23222 2.12307 
2.00785 1.89102 1.777 1.66946 2.42672 2.33166 2.22608 2.11299 1.99634 
1.88041 1.76911 1.66533 1.47626 1.47213 1.37249 1.46906 1.36459 1.26118 
1.46741 1.35938 1.25058 1.14526 1.46741 1.35755 1.24485 1.13374 1.0286 
1.46906 1.35938 1.24485 1.12969 1.01852 0.915514 1.47213 1.36459 1.25058 
1.13374 1.01852 0.909371 0.809937 1.47626 1.37249 1.26118 1.14526 1.0286 
0.915514 0.809937 0.714871 1.41746 1.30996 1.34871 1.19452 1.23313 1.2767 
1.07402 1.11021 1.15448 1.20431 0.952313 0.983547 1.02616 1.07784 1.13501 
0.833684 0.857515 0.895868 0.94706 1.00737 1.07221 0.722093 0.736561 0.768195 
0.816367 0.877585 0.946693 1.01847 0.620619 0.624416 0.647337 0.690152 0.749941 
0.821245 0.898002 0.975055 0.975055 0.898002 1.01847 0.821245 0.946693 1.07221 
0.749941 0.877585 1.00737 1.13501 0.690152 0.816367 0.94706 1.07784 1.20431 
0.647337 0.768195 0.895868 1.02616 1.15448 1.2767 0.624416 0.736561 0.857515 
0.983547 1.11021 1.23313 1.34871 0.620619 0.722093 0.833684 0.952313 1.07402 
1.19452 1.30996 1.41746 
