# vtk DataFile Version 3.0
vtk output
ASCII
DATASET POLYDATA
POINTS 1002 float
-117.407 -112.507 52.2774 -117.652 -123.507 63.8047 -116.746 -106.089 59.6116 
-117.564 -121.244 67.1551 -113.458 -117.453 59.6371 -114.563 -114.906 61.493 
-122.803 -117.319 59.9253 -123.368 -114.486 63.0179 -109.078 -126.708 72.0544 
-112.563 -104.771 51.6924 -121.752 -125.999 69.353 -119.614 -105.106 52.1745 
-117.499 -113.582 53.2329 -117.628 -114.778 54.2587 -117.722 -115.95 55.3549 
-117.765 -117.012 56.6603 -117.815 -118.072 58.2034 -117.88 -119.304 59.6823 
-117.901 -120.663 60.824 -117.856 -121.898 61.7607 -117.771 -122.835 62.7493 
-116.957 -112.684 52.7183 -116.452 -112.975 53.2479 -115.958 -113.393 53.7993 
-115.519 -113.897 54.399 -115.112 -114.438 55.106 -114.708 -114.996 55.9087 
-114.34 -115.572 56.7884 -114.034 -116.176 57.7562 -113.757 -116.812 58.7499 
-117.857 -112.984 52.5925 -118.358 -113.41 53.1974 -118.982 -113.767 53.9749 
-119.699 -114.17 54.7223 -120.348 -114.691 55.4754 -120.853 -115.215 56.4448 
-121.316 -115.649 57.5727 -121.823 -116.1 58.5681 -122.337 -116.674 59.317 
-117.082 -111.581 51.6615 -116.694 -110.658 51.1743 -116.161 -109.769 50.7854 
-115.487 -108.895 50.4085 -114.831 -108.03 50.0682 -114.297 -107.19 49.9422 
-113.802 -106.385 50.1299 -113.288 -105.656 50.5397 -112.845 -105.098 51.065 
-117.653 -111.825 51.4897 -117.932 -111.149 50.7684 -118.178 -110.386 50.2476 
-118.33 -109.423 50.0072 -118.435 -108.273 50.0151 -118.615 -107.142 50.1731 
-118.897 -106.269 50.4437 -119.189 -105.707 50.8736 -119.423 -105.353 51.4754 
-117.244 -123.142 63.7625 -116.835 -122.7 63.6742 -116.392 -122.164 63.4614 
-115.863 -121.594 63.0673 -115.27 -121.057 62.5304 -114.776 -120.426 61.9604 
-114.482 -119.55 61.4163 -114.258 -118.604 60.8625 -113.918 -117.893 60.26 
-118.19 -123.456 63.1896 -118.824 -123.262 62.6455 -119.532 -122.784 62.2719 
-120.248 -122.025 62.0218 -120.924 -121.195 61.7478 -121.546 -120.435 61.3926 
-122.069 -119.668 61.018 -122.431 -118.838 60.6616 -122.647 -118.029 60.3012 
-117.2 -123.917 64.8445 -116.582 -124.486 65.7827 -115.765 -125.27 66.5144 
-114.794 -126.092 67.2409 -113.724 -126.696 68.2278 -112.525 -127.059 69.3761 
-111.214 -127.312 70.3653 -110.026 -127.419 71.0901 -109.275 -127.221 71.6397 
-117.834 -124.084 64.4983 -118.052 -124.69 65.1792 -118.336 -125.309 65.7688 
-118.739 -125.857 66.3197 -119.297 -126.274 66.9444 -119.952 -126.603 67.6049 
-120.584 -126.862 68.1601 -121.099 -126.908 68.5921 -121.479 -126.602 68.9848 
-117.026 -106.903 60.3031 -117.348 -107.951 61.0973 -117.693 -109.366 61.8905 
-118.014 -111.229 62.5651 -118.273 -113.41 63.1854 -118.433 -115.571 63.9444 
-118.422 -117.406 64.8592 -118.208 -118.88 65.7499 -117.877 -120.133 66.5035 
-116.105 -106.331 59.9249 -115.43 -106.758 60.3751 -114.917 -107.402 60.7863 
-114.847 -108.29 60.8363 -115.236 -109.419 60.4322 -115.665 -110.645 59.9661 
-115.711 -111.772 59.9138 -115.382 -112.798 60.3238 -114.944 -113.842 60.9232 
-117.514 -106.486 59.8066 -118.309 -107.061 60.0701 -119.141 -107.7 60.3976 
-119.92 -108.405 60.8291 -120.506 -109.337 61.3636 -120.948 -110.463 61.8816 
-121.468 -111.514 62.2641 -122.137 -112.433 62.5298 -122.811 -113.405 62.768 
-116.062 -105.505 59.11 -115.302 -104.992 58.5492 -114.519 -104.48 57.9161 
-113.771 -103.94 57.1932 -113.137 -103.469 56.2933 -112.721 -103.202 55.1675 
-112.556 -103.212 53.9721 -112.544 -103.517 52.9498 -112.561 -104.073 52.2027 
-116.983 -105.516 59.0877 -117.264 -104.932 58.5602 -117.596 -104.433 57.8777 
-117.984 -104.08 56.9286 -118.404 -103.815 55.8403 -118.809 -103.631 54.8462 
-119.146 -103.673 54.0199 -119.375 -104.015 53.3041 -119.513 -104.542 52.6772 
-117.144 -120.812 67.1181 -116.816 -120.214 67.0534 -116.48 -119.515 66.846 
-116.001 -118.809 66.3914 -115.434 -118.142 65.7223 -115.014 -117.49 64.9538 
-114.826 -116.831 64.1281 -114.736 -116.17 63.2425 -114.641 -115.522 62.3428 
-118.27 -120.883 66.8222 -119.084 -120.402 66.5044 -119.907 -119.845 66.1502 
-120.62 -119.246 65.7017 -121.199 -118.58 65.1658 -121.732 -117.798 64.6188 
-122.274 -116.912 64.1398 -122.775 -116.003 63.7467 -123.152 -115.171 63.3919 
-116.979 -122.076 67.8194 -116.334 -122.859 68.5824 -115.547 -123.507 69.4016 
-114.576 -123.998 70.3584 -113.546 -124.363 71.5599 -112.595 -124.673 72.752 
-111.655 -125.05 73.3936 -110.631 -125.578 73.2816 -109.681 -126.184 72.7141 
-117.752 -122.077 67.6125 -118.063 -122.797 68.2064 -118.432 -123.327 68.9459 
-118.873 -123.665 69.7139 -119.505 -123.906 70.3495 -120.282 -124.179 70.7582 
-120.938 -124.58 70.8698 -121.33 -125.104 70.6204 -121.559 -125.626 70.0595 
-112.946 -117.599 59.7394 -112.495 -117.569 59.8335 -112.272 -117.18 59.9893 
-112.36 -116.513 60.2758 -112.689 -115.929 60.6408 -113.132 -115.664 60.9239 
-113.593 -115.587 61.0621 -113.996 -115.451 61.1597 -114.308 -115.196 61.3105 
-113.358 -118.377 60.8072 -113.069 -119.445 61.9708 -112.664 -120.643 63.2029 
-112.326 -121.976 64.61 -112.033 -123.446 66.2281 -111.433 -124.894 67.9286 
-110.371 -125.999 69.4343 -109.305 -126.582 70.5501 -108.825 -126.747 71.3535 
-113.121 -116.64 58.4361 -112.779 -115.557 57.0769 -112.592 -114.037 55.6989 
-112.532 -112.219 54.5003 -112.383 -110.467 53.5824 -112.098 -108.988 52.8916 
-111.925 -107.759 52.3548 -112.036 -106.707 51.9736 -112.312 -105.736 51.7622 
-114.271 -116.342 62.5417 -113.993 -117.728 63.5862 -113.563 -118.97 64.7499 
-112.879 -120.203 66.2843 -112.102 -121.587 68.1369 -111.35 -122.991 69.8288 
-110.504 -124.186 70.964 -109.622 -125.168 71.577 -109.066 -126.021 71.8948 
-114.744 -113.615 60.3153 -114.824 -112.277 59.2099 -114.463 -110.989 58.4213 
-113.516 -109.733 57.9547 -112.425 -108.462 57.4385 -111.822 -107.285 56.4837 
-111.799 -106.374 55.1195 -112.016 -105.724 53.7018 -112.268 -105.206 52.5328 
-123.178 -117.298 60.0844 -123.593 -117.179 60.3407 -124.096 -116.884 60.6517 
-124.616 -116.484 60.9234 -124.903 -116.14 61.2054 -124.79 -115.892 61.6516 
-124.427 -115.62 62.2166 -124.058 -115.248 62.6699 -123.728 -114.838 62.9079 
-123.213 -118.407 60.7715 -123.745 -119.513 61.6662 -124.242 -120.583 62.5536 
-124.464 -121.642 63.3793 -124.361 -122.701 64.178 -124.061 -123.683 65.0734 
-123.609 -124.511 66.14 -122.998 -125.169 67.3056 -122.337 -125.664 68.4161 
-122.735 -116.216 59.1096 -122.721 -115.046 58.1387 -122.578 -113.857 57.0718 
-122.161 -112.644 56.0084 -121.608 -111.292 54.994 -121.146 -109.726 54.0284 
-120.774 -108.131 53.1837 -120.385 -106.812 52.5843 -119.982 -105.852 52.2708 
-123.768 -116.036 63.5355 -124.191 -117.483 64.184 -124.644 -118.582 65.0188 
-124.966 -119.633 65.8999 -124.894 -121.043 66.6387 -124.378 -122.536 67.2688 
-123.65 -123.593 67.9345 -122.944 -124.323 68.5938 -122.323 -125.116 69.0837 
-123.124 -113.248 62.3566 -122.709 -112.195 61.4085 -122.189 -111.3 60.1931 
-121.738 -110.276 58.881 -121.462 -108.953 57.6219 -121.245 -107.562 56.4043 
-120.921 -106.464 55.1747 -120.487 -105.769 53.9962 -120.033 -105.365 52.9854 
-109.892 -126.969 72.5707 -111.126 -127.091 73.0163 -112.407 -127.016 73.1588 
-113.611 -126.815 72.8904 -115.03 -126.714 72.3259 -116.822 -126.87 71.6515 
-118.633 -127.116 71.0059 -120.046 -127.094 70.4499 -121.02 -126.662 69.9314 
-112.905 -103.877 51.2938 -113.333 -103.019 50.9612 -113.983 -102.521 50.6108 
-114.928 -102.506 50.1753 -116.049 -102.716 49.8315 -117.108 -102.922 49.9192 
-117.952 -103.251 50.473 -118.596 -103.824 51.1538 -119.132 -104.497 51.7099 
-117.075 -113.895 53.6861 -116.601 -114.273 54.2453 -117.233 -115.212 54.7066 
-116.132 -114.707 54.8727 -116.785 -115.623 55.3169 -117.341 -116.452 55.8547 
-115.704 -115.183 55.599 -116.31 -116.025 56.0841 -116.891 -116.87 56.597 
-117.37 -117.564 57.3057 -115.297 -115.689 56.4496 -115.832 -116.483 56.9907 
-116.374 -117.287 57.5439 -116.896 -118.047 58.1951 -117.375 -118.714 58.9589 
-114.906 -116.208 57.3873 -115.363 -117.014 57.9745 -115.827 -117.819 58.5724 
-116.359 -118.57 59.2152 -116.889 -119.308 59.8701 -117.389 -120.014 60.4287 
-114.564 -116.735 58.3752 -114.95 -117.559 58.9721 -115.311 -118.44 59.5706 
-115.807 -119.191 60.2082 -116.386 -119.891 60.8291 -116.915 -120.618 61.3073 
-117.39 -121.304 61.5925 -114.256 -117.295 59.3663 -114.604 -118.084 59.9544 
-114.873 -119.034 60.5193 -115.276 -119.84 61.1151 -115.855 -120.476 61.7262 
-116.436 -121.119 62.2295 -116.919 -121.778 62.5302 -117.347 -122.358 62.6669 
-116.528 -111.73 52.1668 -116.07 -110.821 51.6764 -115.963 -112.055 52.6975 
-115.561 -109.942 51.2543 -115.51 -111.18 52.1875 -115.452 -112.543 53.251 
-115.008 -109.046 50.8977 -115.053 -110.291 51.8228 -114.969 -111.704 52.8125 
-114.962 -113.128 53.9078 -114.435 -108.179 50.6522 -114.509 -109.382 51.5992 
-114.422 -110.834 52.5718 -114.335 -112.363 53.544 -114.448 -113.775 54.6469 
-113.814 -107.409 50.6046 -113.823 -108.551 51.4384 -113.751 -109.965 52.3872 
-113.644 -111.575 53.2667 -113.69 -113.146 54.217 -113.974 -114.479 55.4178 
-113.162 -106.733 50.7884 -113.063 -107.841 51.3704 -113.016 -109.147 52.1645 
-112.996 -110.721 52.9621 -113.026 -112.427 53.8045 -113.224 -113.989 54.9163 
-113.615 -115.211 56.3107 -112.625 -106.16 51.1814 -112.417 -107.221 51.5248 
-112.363 -108.399 52.0852 -112.479 -109.814 52.7559 -112.613 -111.49 53.5252 
-112.722 -113.263 54.5477 -112.954 -114.805 55.8884 -113.352 -115.94 57.3688 
-111.962 -106.108 52.6817 -111.739 -106.606 53.9488 -111.729 -107.086 52.9657 
-111.733 -107.395 55.4085 -111.696 -107.708 54.322 -111.816 -108.239 53.4142 
-112.193 -108.564 56.6435 -112.022 -108.755 55.7722 -112.031 -109.043 54.8563 
-112.192 -109.598 54.0508 -113.189 -109.927 57.3905 -112.794 -110.15 56.8507 
-112.522 -110.277 56.2788 -112.463 -110.538 55.5904 -112.489 -111.238 54.9107 
-114.201 -111.255 57.954 -113.743 -111.581 57.5752 -113.203 -111.74 57.3181 
-112.807 -111.839 57.0189 -112.599 -112.303 56.5375 -112.516 -113.18 56.0142 
-114.637 -112.551 58.8196 -114.286 -112.905 58.4815 -113.736 -113.141 58.2869 
[...]
POINT_DATA 1002
FIELD FieldData 2
Color_Map_Phi 1 1002 float
6.28319 3.14159 6.28319 3.14159 4.71239 4.71239 1.5708 1.5708 3.69517 
5.72961 2.58802 0.553574 6.28319 6.28319 6.28319 6.28319 3.14159 3.14159 
3.14159 3.14159 3.14159 6.1053 5.8988 5.67687 5.45995 5.26596 5.10322 
4.97131 4.86569 4.78095 0.177881 0.384387 0.606312 0.823235 1.01722 1.17997 
1.31187 1.4175 1.50223 6.18928 6.10703 6.03531 5.97283 5.91832 5.87061 
5.82869 5.79168 5.75886 0.0939024 0.176153 0.247873 0.310351 0.364864 0.412573 
0.454497 0.491504 0.524326 3.31947 3.52598 3.7479 3.96483 4.15881 4.32156 
4.45346 4.55909 4.64383 2.96371 2.75721 2.53528 2.31836 2.12437 1.96162 
1.82972 1.72409 1.63936 3.2355 3.31775 3.38947 3.45194 3.50646 3.55417 
3.59609 3.6331 3.66592 3.04769 2.96544 2.89372 2.83124 2.77673 2.72902 
2.6871 2.65009 2.61727 6.28319 6.28319 6.28319 6.28319 3.14159 3.14159 
3.14159 3.14159 3.14159 6.1053 5.8988 5.67687 5.45995 5.26596 5.10322 
4.97131 4.86569 4.78095 0.177881 0.384387 0.606312 0.823235 1.01722 1.17997 
1.31187 1.4175 1.50223 6.18928 6.10703 6.03531 5.97283 5.91832 5.87061 
5.82869 5.79168 5.75886 0.0939024 0.176153 0.247873 0.310351 0.364864 0.412573 
0.454497 0.491504 0.524326 3.31947 3.52598 3.7479 3.96483 4.15881 4.32156 
4.45346 4.55909 4.64383 2.96371 2.75721 2.53528 2.31836 2.12437 1.96162 
1.82972 1.72409 1.63936 3.2355 3.31775 3.38947 3.45194 3.50646 3.55417 
3.59609 3.6331 3.66592 3.04769 2.96544 2.89372 2.83124 2.77673 2.72902 
2.6871 2.65009 2.61727 4.71239 4.71239 4.71239 4.71239 4.71239 4.71239 
4.71239 4.71239 4.71239 4.60879 4.49914 4.3857 4.27128 4.15881 4.05096 
3.94976 3.85646 3.77161 4.81599 4.92564 5.03907 5.1535 5.26596 5.37381 
5.47502 5.56831 5.65317 4.60879 4.49914 4.3857 4.27128 4.15881 4.05096 
3.94976 3.85646 3.77161 4.81599 4.92564 5.03907 5.1535 5.26596 5.37381 
5.47502 5.56831 5.65317 1.5708 1.5708 1.5708 1.5708 1.5708 1.5708 
1.5708 1.5708 1.5708 1.6744 1.78405 1.89748 2.01191 2.12437 2.23222 
2.33343 2.42672 2.51157 1.4672 1.35755 1.24411 1.12969 1.01722 0.909371 
0.808166 0.714871 0.63002 1.6744 1.78405 1.89748 2.01191 2.12437 2.23222 
2.33343 2.42672 2.51157 1.4672 1.35755 1.24411 1.12969 1.01722 0.909371 
0.808166 0.714871 0.63002 3.60077 3.49669 3.38395 3.26458 3.14159 3.01861 
2.89924 2.78649 2.68241 5.82401 5.92808 6.04083 6.1602 6.28319 0.122983 
0.242354 0.355101 0.459179 6.05603 5.78856 5.97021 5.51259 5.60297 5.78856 
5.26596 5.26596 5.26596 5.26596 5.06749 5.0121 4.91556 4.71239 4.15881 
4.91556 4.83537 4.71239 4.50922 4.15881 3.63622 4.80045 4.71239 4.58941 
4.41268 4.15881 3.82181 3.45456 4.71239 4.62433 4.50922 4.35729 4.15881 
3.91219 3.63622 3.36875 6.01742 5.94343 5.82633 5.88092 5.76745 5.62798 
5.8278 5.71897 5.58911 5.43724 5.78235 5.67854 5.55757 5.41926 5.26596 
5.74316 5.64441 5.5315 5.40467 5.26596 5.11955 5.70914 5.61528 5.50962 
5.3926 5.26596 5.13292 4.99789 5.67937 5.59016 5.49102 5.38246 5.26596 
5.14407 5.02016 4.89798 5.56831 5.47502 5.47502 5.37381 5.37381 5.37381 
5.26596 5.26596 5.26596 5.26596 5.1535 5.1535 5.1535 5.1535 5.1535 
5.03907 5.03907 5.03907 5.03907 5.03907 5.03907 4.92564 4.92564 4.92564 
4.92564 4.92564 4.92564 4.92564 4.81599 4.81599 4.81599 4.81599 4.81599 
4.81599 4.81599 4.81599 4.60879 4.60879 4.49914 4.60879 4.49914 4.3857 
4.60879 4.49914 4.3857 4.27128 4.60879 4.49914 4.3857 4.27128 4.15881 
4.60879 4.49914 4.3857 4.27128 4.15881 4.05096 4.60879 4.49914 4.3857 
4.27128 4.15881 4.05096 3.94976 4.60879 4.49914 4.3857 4.27128 4.15881 
4.05096 3.94976 3.85646 4.5268 4.40462 4.42689 4.28071 4.29185 4.30523 
4.15881 4.15881 4.15881 4.15881 4.04232 4.03217 4.02011 4.00552 3.98753 
3.93376 3.91515 3.89328 3.86721 3.83566 3.7968 3.83461 3.8095 3.78037 
3.74624 3.70581 3.65733 3.59845 3.7454 3.71564 3.68161 3.64243 3.59698 
3.54386 3.48135 3.40735 3.56428 3.45246 3.52338 3.33203 3.40312 3.47739 
3.20576 3.27463 3.34802 3.42551 3.07742 3.14159 3.21128 3.28647 3.36688 
2.95116 3.00855 3.0719 3.14159 3.21784 3.3006 2.83072 2.88006 2.93517 
2.99672 3.06535 3.14159 3.22575 2.7189 2.7598 2.8058 2.85768 2.9163 
2.98259 3.05743 3.14159 3.56428 3.52338 3.45246 3.47739 3.40312 3.33203 
3.42551 3.34802 3.27463 3.20576 3.36688 3.28647 3.21128 3.14159 3.07742 
3.3006 3.21784 3.14159 3.0719 3.00855 2.95116 3.22575 3.14159 3.06535 
2.99672 2.93517 2.88006 2.83072 3.14159 3.05743 2.98259 2.9163 2.85768 
2.8058 2.7598 2.7189 4.5268 4.42689 4.40462 4.30523 4.29185 4.28071 
4.15881 4.15881 4.15881 4.15881 3.98753 4.00552 4.02011 4.03217 4.04232 
3.7968 3.83566 3.86721 3.89328 3.91515 3.93376 3.59845 3.65733 3.70581 
3.74624 3.78037 3.8095 3.83461 3.40735 3.48135 3.54386 3.59698 3.64243 
3.68161 3.71564 3.7454 4.71239 4.80045 4.62433 4.91556 4.71239 4.50922 
5.06749 4.83537 4.58941 4.35729 5.26596 5.0121 4.71239 4.41268 4.15881 
5.51259 5.26596 4.91556 4.50922 4.15881 3.91219 5.78856 5.60297 5.26596 
4.71239 4.15881 3.82181 3.63622 6.05603 5.97021 5.78856 5.26596 4.15881 
3.63622 3.45456 3.36875 0.227158 0.494626 0.312971 0.770593 0.680215 0.494626 
1.01722 1.01722 1.01722 1.01722 1.2157 1.27109 1.36763 1.5708 2.12437 
1.36763 1.44781 1.5708 1.77397 2.12437 2.64697 1.48273 1.5708 1.69378 
1.8705 2.12437 2.46138 2.82862 1.5708 1.65886 1.77397 1.9259 2.12437 
2.371 2.64697 2.91443 1.75639 1.87857 1.8563 2.00248 1.99133 1.97796 
2.12437 2.12437 2.12437 2.12437 2.24087 2.25101 2.26308 2.27767 2.29565 
2.34943 2.36803 2.38991 2.41597 2.44752 2.48639 2.44857 2.47368 2.50281 
2.53694 2.57738 2.62586 2.68474 2.53778 2.56754 2.60157 2.64076 2.68621 
2.73933 2.80184 2.87583 1.6744 1.6744 1.78405 1.6744 1.78405 1.89748 
1.6744 1.78405 1.89748 2.01191 1.6744 1.78405 1.89748 2.01191 2.12437 
1.6744 1.78405 1.89748 2.01191 2.12437 2.23222 1.6744 1.78405 1.89748 
2.01191 2.12437 2.23222 2.33343 1.6744 1.78405 1.89748 2.01191 2.12437 
2.23222 2.33343 2.42672 1.4672 1.35755 1.4672 1.24411 1.35755 1.4672 
1.12969 1.24411 1.35755 1.4672 1.01722 1.12969 1.24411 1.35755 1.4672 
0.909371 1.01722 1.12969 1.24411 1.35755 1.4672 0.808166 0.909371 1.01722 
1.12969 1.24411 1.35755 1.4672 0.714871 0.808166 0.909371 1.01722 1.12969 
1.24411 1.35755 1.4672 0.603812 0.57405 0.693022 0.540021 0.667908 0.792164 
0.500837 0.638778 0.773562 0.900726 0.455383 0.604649 0.751687 0.890581 1.01722 
0.402264 0.564217 0.725619 0.878514 1.01722 1.13912 0.339753 0.515737 0.694072 
0.863926 1.01722 1.15026 1.26302 0.265762 0.456853 0.655207 0.845941 1.01722 
1.16363 1.28529 1.38521 0.227158 0.312971 0.494626 0.494626 0.680215 0.770593 
1.01722 1.01722 1.01722 1.01722 2.12437 1.5708 1.36763 1.27109 1.2157 
2.64697 2.12437 1.77397 1.5708 1.44781 1.36763 2.82862 2.46138 2.12437 
1.8705 1.69378 1.5708 1.48273 2.91443 2.64697 2.371 2.12437 1.9259 
1.77397 1.65886 1.5708 1.75639 1.8563 1.87857 1.97796 1.99133 2.00248 
2.12437 2.12437 2.12437 2.12437 2.29565 2.27767 2.26308 2.25101 2.24087 
2.48639 2.44752 2.41597 2.38991 2.36803 2.34943 2.68474 2.62586 2.57738 
2.53694 2.50281 2.47368 2.44857 2.87583 2.80184 2.73933 2.68621 2.64076 
2.60157 2.56754 2.53778 5.86049 5.90139 5.97231 5.94739 6.02165 6.09275 
5.99927 6.07676 6.15015 6.21902 6.0579 6.13831 6.2135 0 0.0641696 
6.12418 6.20694 6.28319 0.069689 0.13304 0.190437 6.19903 0 0.0762451 
0.144876 0.206423 0.261531 0.310872 0 0.0841597 0.159004 0.225289 0.283913 
0.335793 0.381792 0.422692 5.86049 5.97231 5.90139 6.09275 6.02165 5.94739 
6.21902 6.15015 6.07676 5.99927 0.0641696 0 6.2135 6.13831 6.0579 
0.190437 0.13304 0.069689 6.28319 6.20694 6.12418 0.310872 0.261531 0.206423 
0.144876 0.0762451 6.28319 6.19903 0.422692 0.381792 0.335793 0.283913 0.225289 
0.159004 0.0841597 0 5.67937 5.70914 5.59016 5.74316 5.61528 5.49102 
5.78235 5.64441 5.50962 5.38246 5.8278 5.67854 5.5315 5.3926 5.26596 
5.88092 5.71897 5.55757 5.40467 5.26596 5.14407 5.94343 5.76745 5.58911 
5.41926 5.26596 5.13292 5.02016 6.01742 5.82633 5.62798 5.43724 5.26596 
5.11955 4.99789 4.89798 1.38521 1.28529 1.26302 1.16363 1.15026 1.13912 
1.01722 1.01722 1.01722 1.01722 0.845941 0.863926 0.878514 0.890581 0.900726 
0.655207 0.694072 0.725619 0.751687 0.773562 0.792164 0.456853 0.515737 0.564217 
0.604649 0.638778 0.667908 0.693022 0.265762 0.339753 0.402264 0.455383 0.500837 
0.540021 0.57405 0.603812 
Color_Map_Theta 1 1002 float
2.58802 2.58802 0.553574 0.553574 2.12437 1.01722 2.12437 1.01722 1.5708 
1.5708 1.5708 1.5708 2.68241 2.78649 2.89924 3.01861 3.14159 3.01861 
2.89924 2.78649 2.68241 2.61035 2.61791 2.60515 2.56958 2.51327 2.44184 
2.36202 2.27983 2.1997 2.61035 2.61791 2.60515 2.56958 2.51327 2.44184 
2.36202 2.27983 2.1997 2.50947 2.41899 2.31794 2.20864 2.0944 1.97902 
1.86631 1.75944 1.66056 2.50947 2.41899 2.31794 2.20864 2.0944 1.97902 
1.86631 1.75944 1.66056 2.61035 2.61791 2.60515 2.56958 2.51327 2.44184 
2.36202 2.27983 2.1997 2.61035 2.61791 2.60515 2.56958 2.51327 2.44184 
2.36202 2.27983 2.1997 2.50947 2.41899 2.31794 2.20864 2.0944 1.97902 
1.86631 1.75944 1.66056 2.50947 2.41899 2.31794 2.20864 2.0944 1.97902 
1.86631 1.75944 1.66056 0.459179 0.355101 0.242354 0.122983 0 0.122983 
0.242354 0.355101 0.459179 0.531246 0.523681 0.536438 0.57201 0.628319 0.699757 
0.779574 0.86176 0.941896 0.531246 0.523681 0.536438 0.57201 0.628319 0.699757 
0.779574 0.86176 0.941896 0.632123 0.7226 0.823657 0.932948 1.0472 1.16257 
1.27528 1.38216 1.48103 0.632123 0.7226 0.823657 0.932948 1.0472 1.16257 
1.27528 1.38216 1.48103 0.531246 0.523681 0.536438 0.57201 0.628319 0.699757 
0.779574 0.86176 0.941896 0.531246 0.523681 0.536438 0.57201 0.628319 0.699757 
0.779574 0.86176 0.941896 0.632123 0.7226 0.823657 0.932948 1.0472 1.16257 
1.27528 1.38216 1.48103 0.632123 0.7226 0.823657 0.932948 1.0472 1.16257 
1.27528 1.38216 1.48103 2.02998 1.9259 1.81315 1.69378 1.5708 1.44781 
1.32844 1.2157 1.11162 2.0928 2.05283 2.00422 1.94767 1.88496 1.81867 
1.75177 1.68695 1.62623 2.0928 2.05283 2.00422 1.94767 1.88496 1.81867 
1.75177 1.68695 1.62623 1.0488 1.08876 1.13737 1.19392 1.25664 1.32292 
1.38982 1.45464 1.51537 1.0488 1.08876 1.13737 1.19392 1.25664 1.32292 
1.38982 1.45464 1.51537 2.02998 1.9259 1.81315 1.69378 1.5708 1.44781 
1.32844 1.2157 1.11162 2.0928 2.05283 2.00422 1.94767 1.88496 1.81867 
1.75177 1.68695 1.62623 2.0928 2.05283 2.00422 1.94767 1.88496 1.81867 
1.75177 1.68695 1.62623 1.0488 1.08876 1.13737 1.19392 1.25664 1.32292 
1.38982 1.45464 1.51537 1.0488 1.08876 1.13737 1.19392 1.25664 1.32292 
1.38982 1.45464 1.51537 1.5708 1.5708 1.5708 1.5708 1.5708 1.5708 
1.5708 1.5708 1.5708 1.5708 1.5708 1.5708 1.5708 1.5708 1.5708 
1.5708 1.5708 1.5708 2.70908 2.71362 2.81592 2.68886 2.81002 2.92597 
2.6349 2.76254 2.89233 3.01997 2.55881 2.68262 2.80854 2.92834 3.01997 
2.47007 2.58462 2.70048 2.80854 2.89233 2.92597 2.37702 2.48017 2.58462 
2.68262 2.76254 2.81002 2.81592 2.28567 2.37702 2.47007 2.55881 2.6349 
2.68886 2.71362 2.70908 2.52097 2.4195 2.51718 2.30791 2.40503 2.49426 
2.18928 2.28408 2.3734 2.45144 2.06758 2.15805 2.24572 2.32523 2.39165 
1.94707 2.03138 2.11543 2.19453 2.26401 2.32035 1.83164 1.90847 1.98711 
2.06376 2.13422 2.1949 2.24359 1.72413 1.79288 1.86489 1.93728 2.00658 
2.06938 2.12312 2.16654 1.5708 1.50988 1.63171 1.44492 1.5708 1.69667 
1.37826 1.5059 1.63569 1.76333 1.31281 1.43962 1.5708 1.70197 1.82878 
1.25155 1.37501 1.50478 1.63681 1.76659 1.89004 1.19686 1.31493 1.44074 
1.5708 1.70086 1.82666 1.94473 1.15011 1.26149 1.38136 1.50697 1.63462 
1.76024 1.88011 1.99148 1.99148 1.88011 1.94473 1.76024 1.82666 1.89004 
1.63462 1.70086 1.76659 1.82878 1.50697 1.5708 1.63681 1.70197 1.76333 
1.38136 1.44074 1.50478 1.5708 1.63569 1.69667 1.26149 1.31493 1.37501 
1.43962 1.5059 1.5708 1.63171 1.15011 1.19686 1.25155 1.31281 1.37826 
1.44492 1.50988 1.5708 2.16654 2.12312 2.24359 2.06938 2.1949 2.32035 
2.00658 2.13422 2.26401 2.39165 1.93728 2.06376 2.19453 2.32523 2.45144 
1.86489 1.98711 2.11543 2.24572 2.3734 2.49426 1.79288 1.90847 2.03138 
2.15805 2.28408 2.40503 2.51718 1.72413 1.83164 1.94707 2.06758 2.18928 
2.30791 2.4195 2.52097 1.66533 1.66946 1.76911 1.67254 1.777 1.88041 
1.67418 1.78222 1.89102 1.99634 1.67418 1.78405 1.89674 2.00785 2.11299 
1.67254 1.78222 1.89674 2.01191 2.12307 2.22608 1.66946 1.777 1.89102 
2.00785 2.12307 2.23222 2.33166 1.66533 1.76911 1.88041 1.99634 2.11299 
2.22608 2.33166 2.42672 1.47626 1.37249 1.47213 1.26118 1.36459 1.46906 
1.14526 1.25058 1.35938 1.46741 1.0286 1.13374 1.24485 1.35755 1.46741 
0.915514 1.01852 1.12969 1.24485 1.35938 1.46906 0.809937 0.909371 1.01852 
1.13374 1.25058 1.36459 1.47213 0.714871 0.809937 0.915514 1.0286 1.14526 
1.26118 1.37249 1.47626 0.975055 0.898002 1.01847 0.821245 0.946693 1.07221 
0.749941 0.877585 1.00737 1.13501 0.690152 0.816367 0.94706 1.07784 1.20431 
0.647337 0.768195 0.895868 1.02616 1.15448 1.2767 0.624416 0.736561 0.857515 
0.983547 1.11021 1.23313 1.34871 0.620619 0.722093 0.833684 0.952313 1.07402 
1.19452 1.30996 1.41746 0.855925 0.764569 0.764569 0.671524 0.661425 0.671524 
0.582786 0.556971 0.556971 0.582786 0.506696 0.458968 0.441109 0.458968 0.506696 
0.45273 0.379052 0.333054 0.333054 0.379052 0.45273 0.427969 0.331576 0.249267 
0.21325 0.249267 0.331576 0.427969 0.432512 0.325669 0.215619 0.121622 0.121622 
0.215619 0.325669 0.432512 0.432512 0.427969 0.325669 0.45273 0.331576 0.215619 
0.506696 0.379052 0.249267 0.121622 0.582786 0.458968 0.333054 0.21325 0.121622 
0.671524 0.556971 0.441109 0.333054 0.249267 0.215619 0.764569 0.661425 0.556971 
0.458968 0.379052 0.331576 0.325669 0.855925 0.764569 0.671524 0.582786 0.506696 
0.45273 0.427969 0.432512 0.975055 1.01847 0.898002 1.07221 0.946693 0.821245 
1.13501 1.00737 0.877585 0.749941 1.20431 1.07784 0.94706 0.816367 0.690152 
1.2767 1.15448 1.02616 0.895868 0.768195 0.647337 1.34871 1.23313 1.11021 
0.983547 0.857515 0.736561 0.624416 1.41746 1.30996 1.19452 1.07402 0.952313 
0.833684 0.722093 0.620619 1.15011 1.26149 1.19686 1.38136 1.31493 1.25155 
1.50697 1.44074 1.37501 1.31281 1.63462 1.5708 1.50478 1.43962 1.37826 
1.76024 1.70086 1.63681 1.5708 1.5059 1.44492 1.88011 1.82666 1.76659 
1.70197 1.63569 1.5708 1.50988 1.99148 1.94473 1.89004 1.82878 1.76333 
1.69667 1.63171 1.5708 1.15011 1.19686 1.26149 1.25155 1.31493 1.38136 
1.31281 1.37501 1.44074 1.50697 1.37826 1.43962 1.50478 1.5708 1.63462 
1.44492 1.5059 1.5708 1.63681 1.70086 1.76024 1.50988 1.5708 1.63569 
1.70197 1.76659 1.82666 1.88011 1.5708 1.63171 1.69667 1.76333 1.82878 
1.89004 1.94473 1.99148 1.72413 1.83164 1.79288 1.94707 1.90847 1.86489 
2.06758 2.03138 1.98711 1.93728 2.18928 2.15805 2.11543 2.06376 2.00658 
2.30791 2.28408 2.24572 2.19453 2.13422 2.06938 2.4195 2.40503 2.3734 
2.32523 2.26401 2.1949 2.12312 2.52097 2.51718 2.49426 2.45144 2.39165 
2.32035 2.24359 2.16654 2.70908 2.81592 2.71362 2.92597 2.81002 2.68886 
3.01997 2.89233 2.76254 2.6349 3.01997 2.92834 2.80854 2.68262 2.55881 
2.92597 2.89233 2.80854 2.70048 2.58462 2.47007 2.81592 2.81002 2.76254 
2.68262 2.58462 2.48017 2.37702 2.70908 2.71362 2.68886 2.6349 2.55881 
2.47007 2.37702 2.28567 2.16654 2.24359 2.12312 2.32035 2.1949 2.06938 
2.39165 2.26401 2.13422 2.00658 2.45144 2.32523 2.19453 2.06376 1.93728 
2.49426 2.3734 2.24572 2.11543 1.98711 1.86489 2.51718 2.40503 2.28408 
2.15805 2.03138 1.90847 1.79288 2.52097 2.4195 2.30791 2.18928 2.06758 
1.94707 1.83164 1.72413 1.66533 1.76911 1.66946 1.88041 1.777 1.67254 
1.99634 1.89102 1.78222 1.67418 2.11299 2.00785 1.89674 1.78405 1.67418 
2.22608 2.12307 2.01191 1.89674 1.78222 1.67254 2.33166 2.23222 2.12307 
2.00785 1.89102 1.777 1.66946 2.42672 2.33166 2.22608 2.11299 1.99634 
1.88041 1.76911 1.66533 1.47626 1.47213 1.37249 1.46906 1.36459 1.26118 
1.46741 1.35938 1.25058 1.14526 1.46741 1.35755 1.24485 1.13374 1.0286 
1.46906 1.35938 1.24485 1.12969 1.01852 0.915514 1.47213 1.36459 1.25058 
1.13374 1.01852 0.909371 0.809937 1.47626 1.37249 1.26118 1.14526 1.0286 
0.915514 0.809937 0.714871 1.41746 1.30996 1.34871 1.19452 1.23313 1.2767 
1.07402 1.11021 1.15448 1.20431 0.952313 0.983547 1.02616 1.07784 1.13501 
0.833684 0.857515 0.895868 0.94706 1.00737 1.07221 0.722093 0.736561 0.768195 
0.816367 0.877585 0.946693 1.01847 0.620619 0.624416 0.647337 0.690152 0.749941 
0.821245 0.898002 0.975055 0.975055 0.898002 1.01847 0.821245 0.946693 1.07221 
0.749941 0.877585 1.00737 1.13501 0.690152 0.816367 0.94706 1.07784 1.20431 
0.647337 0.768195 0.895868 1.02616 1.15448 1.2767 0.624416 0.736561 0.857515 
0.983547 1.11021 1.23313 1.34871 0.620619 0.722093 0.833684 0.952313 1.07402 
1.19452 1.30996 1.41746 
