# vtk DataFile Version 4.2
vtk output
ASCII
DATASET POLYDATA
POINTS 1002 float
-117.142 -111.179 51.6879 -117.355 -125.583 64.3136 -117.176 -105.83 58.0107 
-117.546 -120.758 70.0445 -111.252 -117.504 59.3001 -111.342 -114.378 62.979 
-123.649 -117.459 59.0254 -123.699 -114.3 62.7935 -113.356 -127.731 71.2485 
-113.205 -103.925 51.0533 -121.322 -127.613 70.8581 -120.532 -103.968 51.1569 
-117.187 -112.296 52.4196 -117.239 -113.753 53.4606 -117.288 -115.37 54.6985 
-117.328 -117.063 56.0752 -117.358 -118.772 57.5429 -117.376 -120.443 59.0547 
-117.382 -122.025 60.561 -117.378 -123.465 62.005 -117.367 -124.697 63.3098 
-116.609 -111.546 51.9655 -115.94 -112.065 52.4351 -115.222 -112.68 53.0583 
-114.495 -113.365 53.811 -113.784 -114.095 54.6696 -113.113 -114.85 55.6074 
-112.502 -115.605 56.593 -111.969 -116.333 57.5868 -111.538 -116.993 58.5314 
-117.708 -111.549 51.9582 -118.424 -112.071 52.4152 -119.201 -112.687 53.02 
-119.997 -113.371 53.7481 -120.783 -114.098 54.5762 -121.532 -114.846 55.4785 
-122.222 -115.592 56.4251 -122.827 -116.309 57.3788 -123.32 -116.958 58.2857 
-116.767 -110.331 51.2245 -116.298 -109.32 50.7618 -115.799 -108.287 50.3809 
-115.299 -107.294 50.1128 -114.817 -106.382 49.9727 -114.37 -105.581 49.9666 
-113.972 -104.918 50.0922 -113.634 -104.41 50.3387 -113.371 -104.073 50.6815 
-117.444 -110.333 51.2221 -117.82 -109.327 50.7605 -118.223 -108.299 50.3856 
-118.633 -107.312 50.1283 -119.034 -106.406 50.0032 -119.417 -105.612 50.0145 
-119.771 -104.953 50.1584 -120.086 -104.449 50.4219 -120.348 -104.115 50.7779 
-116.785 -125.266 64.0096 -116.074 -124.751 63.5836 -115.315 -124.08 63.0825 
-114.553 -123.279 62.5299 -113.814 -122.372 61.9452 -113.124 -121.385 61.3469 
-112.501 -120.35 60.7548 -111.964 -119.307 60.191 -111.534 -118.314 59.6854 
-117.935 -125.257 63.9629 -118.664 -124.73 63.4817 -119.446 -124.049 62.9265 
-120.237 -123.239 62.3261 -121.006 -122.326 61.7028 -121.725 -121.335 61.0771 
-122.374 -120.299 60.4692 -122.929 -119.256 59.9009 -123.368 -118.266 59.4003 
-116.987 -126.179 65.0946 -116.523 -126.812 66.0321 -116.024 -127.378 66.9965 
-115.518 -127.836 67.9303 -115.026 -128.163 68.7954 -114.566 -128.346 69.5629 
-114.154 -128.38 70.21 -113.803 -128.271 70.7183 -113.528 -128.036 71.0716 
-117.7 -126.172 65.064 -118.136 -126.795 65.9601 -118.608 -127.349 66.8771 
-119.092 -127.793 67.7603 -119.569 -128.105 68.5743 -120.025 -128.273 69.293 
-120.445 -128.292 69.8961 -120.816 -128.17 70.368 -121.119 -127.924 70.6949 
-117.233 -106.755 58.9717 -117.303 -108.045 60.213 -117.372 -109.554 61.5815 
-117.435 -111.21 63.0063 -117.486 -112.954 64.4362 -117.524 -114.73 65.8272 
-117.548 -116.481 67.1373 -117.558 -118.143 68.3228 -117.555 -119.628 69.3286 
-116.649 -106.168 58.3196 -115.99 -106.722 58.7451 -115.283 -107.442 59.2411 
-114.566 -108.3 59.7852 -113.865 -109.269 60.36 -113.201 -110.318 60.9485 
-112.594 -111.412 61.5326 -112.063 -112.507 62.0909 -111.631 -113.541 62.5939 
-117.743 -106.167 58.3245 -118.461 -106.717 58.7528 -119.242 -107.433 59.2464 
-120.041 -108.285 59.7813 -120.83 -109.245 60.339 -121.583 -110.283 60.9025 
-122.274 -111.366 61.4546 -122.879 -112.449 61.976 -123.371 -113.472 62.4408 
-116.794 -105.217 57.267 -116.318 -104.574 56.3652 -115.814 -104.01 55.4275 
-115.309 -103.566 54.5083 -114.824 -103.266 53.6444 -114.375 -103.121 52.865 
-113.975 -103.132 52.1946 -113.636 -103.292 51.6542 -113.372 -103.578 51.2642 
-117.467 -105.216 57.2717 -117.833 -104.575 56.3788 -118.228 -104.014 55.4535 
-118.631 -103.575 54.5493 -119.028 -103.281 53.7017 -119.41 -103.142 52.9384 
-119.764 -103.16 52.2821 -120.081 -103.326 51.7522 -120.346 -103.617 51.3678 
-116.976 -120.392 69.7967 -116.262 -119.868 69.3743 -115.497 -119.246 68.8098 
-114.725 -118.553 68.1232 -113.975 -117.813 67.3341 -113.271 -117.05 66.4656 
-112.633 -116.288 65.5456 -112.081 -115.556 64.6104 -111.637 -114.892 63.7142 
-118.121 -120.377 69.7622 -118.84 -119.837 69.2999 -119.608 -119.198 68.6975 
-120.383 -118.491 67.9784 -121.134 -117.74 67.1641 -121.835 -116.969 66.2787 
-122.465 -116.204 65.35 -123.003 -115.471 64.4134 -123.428 -114.81 63.5216 
-117.177 -121.609 70.5227 -116.707 -122.613 71.0179 -116.197 -123.629 71.4468 
-115.674 -124.596 71.776 -115.16 -125.473 71.9871 -114.675 -126.232 72.0701 
-114.234 -126.852 72.0227 -113.854 -127.316 71.8507 -113.551 -127.613 71.5732 
-117.887 -121.6 70.4992 -118.314 -122.591 70.9608 -118.772 -123.593 71.3487 
-119.236 -124.543 71.6315 -119.691 -125.405 71.7929 -120.122 -126.149 71.8257 
-120.516 -126.755 71.7301 -120.86 -127.209 71.5153 -121.138 -127.498 71.2036 
-110.994 -117.292 59.5643 -110.746 -117.005 59.9164 -110.555 -116.676 60.3143 
-110.44 -116.322 60.7375 -110.408 -115.955 61.1711 -110.461 -115.587 61.6013 
-110.598 -115.23 62.0151 -110.808 -114.895 62.3982 -111.072 -114.599 62.7323 
-111.195 -118.5 60.3235 -111.191 -119.729 61.6291 -111.255 -121.03 63.0504 
-111.389 -122.329 64.5093 -111.593 -123.577 65.9499 -111.866 -124.733 67.325 
-112.2 -125.763 68.5918 -112.581 -126.633 69.7082 -112.987 -127.31 70.6249 
-111.202 -116.359 58.458 -111.207 -114.897 57.4249 -111.276 -113.3 56.3406 
-111.41 -111.655 55.2688 -111.607 -110.023 54.2527 -111.863 -108.457 53.3261 
-112.169 -107.005 52.5171 -112.514 -105.718 51.85 -112.877 -104.654 51.3489 
-111.287 -115.544 63.8028 -111.284 -117.022 64.8167 -111.344 -118.623 65.8861 
-111.472 -120.259 66.9502 -111.667 -121.868 67.9668 -111.928 -123.398 68.9019 
-112.246 -124.803 69.7264 -112.611 -126.037 70.4136 -113.001 -127.047 70.9359 
-111.282 -113.361 61.9846 -111.273 -112.102 60.7108 -111.328 -110.768 59.3175 
-111.449 -109.435 57.8787 -111.634 -108.155 56.4483 -111.879 -106.972 55.0721 
-112.178 -105.92 53.7928 -112.518 -105.034 52.6538 -112.878 -104.349 51.7073 
-123.92 -117.243 59.2841 -124.181 -116.95 59.6341 -124.384 -116.616 60.0341 
-124.514 -116.256 60.4639 -124.562 -115.885 60.9078 -124.525 -115.513 61.3516 
-124.406 -115.152 61.7812 -124.213 -114.815 62.1814 -123.962 -114.52 62.5325 
-123.738 -118.442 60.0149 -123.762 -119.657 61.282 -123.701 -120.942 62.6667 
-123.551 -122.227 64.0949 -123.314 -123.463 65.5134 -122.997 -124.611 66.8767 
-122.611 -125.635 68.1433 -122.177 -126.505 69.2708 -121.724 -127.185 70.2085 
-123.657 -116.324 58.2171 -123.58 -114.874 57.2305 -123.41 -113.291 56.1988 
-123.15 -111.659 55.181 -122.809 -110.04 54.2168 -122.399 -108.484 53.3367 
-121.936 -107.04 52.5663 -121.442 -105.758 51.9281 -120.95 -104.697 51.4453 
-123.791 -115.455 63.5797 -123.819 -116.921 64.5479 -123.76 -118.51 65.5712 
-123.609 -120.135 66.5933 -123.368 -121.737 67.5758 -123.043 -123.263 68.4872 
-122.648 -124.667 69.3003 -122.201 -125.904 69.989 -121.735 -126.92 70.5247 
-123.698 -113.294 61.8291 -123.61 -112.051 60.5947 -123.43 -110.734 59.2442 
-123.162 -109.418 57.8483 -122.815 -108.155 56.4578 -122.4 -106.986 55.1161 
-121.935 -105.947 53.8644 -121.44 -105.07 52.7447 -120.949 -104.39 51.8088 
-113.878 -128.223 71.6568 -114.593 -128.693 72.0382 -115.42 -129.055 72.3199 
-116.318 -129.275 72.4758 -117.256 -129.339 72.4949 -118.203 -129.244 72.3759 
-119.126 -128.995 72.1255 -119.992 -128.609 71.7599 -120.755 -128.118 71.3107 
-113.675 -103.408 50.6312 -114.317 -102.911 50.2287 -115.06 -102.525 49.9208 
-115.869 -102.285 49.735 -116.718 -102.208 49.6829 -117.582 -102.298 49.7673 
-118.435 -102.549 49.9823 -119.247 -102.944 50.3131 -119.976 -103.448 50.7301 
-116.562 -112.947 52.9235 -115.867 -113.622 53.5397 -116.555 -114.519 54.0867 
-115.142 -114.333 54.2691 -115.833 -115.279 54.8042 -116.565 -116.19 55.4075 
-114.416 -115.069 55.097 -115.098 -116.041 55.6096 -115.823 -116.99 56.1937 
-116.581 -117.902 56.8401 -113.715 -115.814 56.0019 -114.375 -116.795 56.4885 
-115.085 -117.766 57.0491 -115.831 -118.706 57.6694 -116.601 -119.601 58.3396 
-113.059 -116.547 56.9557 -113.684 -117.527 57.419 -114.367 -118.511 57.9581 
-115.097 -119.47 58.5532 -115.855 -120.383 59.1901 -116.624 -121.237 59.8599 
-112.466 -117.238 57.9227 -113.042 -118.212 58.3719 -113.689 -119.206 58.8984 
-114.392 -120.183 59.4761 -115.135 -121.114 60.0854 -115.897 -121.977 60.7126 
-116.653 -122.761 61.3508 -111.953 -117.849 58.8556 -112.465 -118.819 59.3107 
-113.063 -119.829 59.8417 -113.731 -120.829 60.4161 -114.452 -121.782 61.0108 
-115.205 -122.661 61.6075 -115.965 -123.446 62.1918 -116.7 -124.123 62.7556 
-116.077 -110.635 51.5111 -115.544 -109.65 51.1082 -115.352 -111.114 52.0008 
-115.02 -108.662 50.7958 -114.791 -110.14 51.6454 -114.617 -111.713 52.6544 
-114.518 -107.722 50.5962 -114.262 -109.187 51.3911 -114.055 -110.754 52.3452 
-113.896 -112.399 53.4439 -114.055 -106.865 50.5206 -113.776 -108.292 51.2524 
-113.54 -109.835 52.1458 -113.351 -111.463 53.1826 -113.209 -113.146 54.3434 
-113.644 -106.117 50.5709 -113.344 -107.483 51.2353 -113.083 -108.984 52.0651 
-112.867 -110.585 53.0387 -112.698 -112.247 54.1332 -112.577 -113.932 55.3252 
-113.298 -105.496 50.7399 -112.98 -106.78 51.3375 -112.695 -108.222 52.1049 
-112.451 -109.783 53.0172 -112.256 -111.419 54.0487 -112.112 -113.086 55.1721 
-112.018 -114.738 56.3591 -113.035 -105.011 51.0104 -112.698 -106.192 51.5485 
-112.386 -107.561 52.2594 -112.113 -109.072 53.1159 -111.89 -110.676 54.091 
-111.722 -112.326 55.1552 -111.61 -113.97 56.2751 -111.552 -115.547 57.4123 
-112.45 -105.339 52.2203 -112.06 -106.188 53.289 -112.057 -106.55 52.8637 
-111.717 -107.192 54.5136 -111.659 -107.517 54.0342 -111.709 -107.939 53.636 
-111.431 -108.327 55.8533 -111.325 -108.609 55.3309 -111.319 -108.988 54.8847 
-111.415 -109.461 54.5217 -111.209 -109.563 57.2674 -111.06 -109.803 56.719 
-111.005 -110.14 56.2361 -111.047 -110.564 55.8254 -111.183 -111.069 55.498 
-111.058 -110.862 58.7133 -110.87 -111.07 58.161 -110.771 -111.372 57.6593 
-110.763 -111.752 57.2131 -110.847 -112.2 56.8332 -111.02 -112.715 56.5352 
-110.981 -112.177 60.144 -110.761 -112.372 59.6168 -110.621 -112.655 59.1206 
-110.568 -113.004 58.6581 -110.604 -113.405 58.2389 -110.726 -113.852 57.8776 
[...]
POINT_DATA 1002
FIELD FieldData 2
Color_Map_Phi 1 1002 float
6.28319 3.14159 6.28319 3.14159 4.71239 4.71239 1.5708 1.5708 3.69517 
5.72961 2.58802 0.553574 6.28319 6.28319 6.28319 6.28319 3.14159 3.14159 
3.14159 3.14159 3.14159 6.1053 5.8988 5.67687 5.45995 5.26596 5.10322 
4.97131 4.86569 4.78095 0.177881 0.384387 0.606312 0.823235 1.01722 1.17997 
1.31187 1.4175 1.50223 6.18928 6.10703 6.03531 5.97283 5.91832 5.87061 
5.82869 5.79168 5.75886 0.0939024 0.176153 0.247873 0.310351 0.364864 0.412573 
0.454497 0.491504 0.524326 3.31947 3.52598 3.7479 3.96483 4.15881 4.32156 
4.45346 4.55909 4.64383 2.96371 2.75721 2.53528 2.31836 2.12437 1.96162 
1.82972 1.72409 1.63936 3.2355 3.31775 3.38947 3.45194 3.50646 3.55417 
3.59609 3.6331 3.66592 3.04769 2.96544 2.89372 2.83124 2.77673 2.72902 
2.6871 2.65009 2.61727 6.28319 6.28319 6.28319 6.28319 3.14159 3.14159 
3.14159 3.14159 3.14159 6.1053 5.8988 5.67687 5.45995 5.26596 5.10322 
4.97131 4.86569 4.78095 0.177881 0.384387 0.606312 0.823235 1.01722 1.17997 
1.31187 1.4175 1.50223 6.18928 6.10703 6.03531 5.97283 5.91832 5.87061 
5.82869 5.79168 5.75886 0.0939024 0.176153 0.247873 0.310351 0.364864 0.412573 
0.454497 0.491504 0.524326 3.31947 3.52598 3.7479 3.96483 4.15881 4.32156 
4.45346 4.55909 4.64383 2.96371 2.75721 2.53528 2.31836 2.12437 1.96162 
1.82972 1.72409 1.63936 3.2355 3.31775 3.38947 3.45194 3.50646 3.55417 
3.59609 3.6331 3.66592 3.04769 2.96544 2.89372 2.83124 2.77673 2.72902 
2.6871 2.65009 2.61727 4.71239 4.71239 4.71239 4.71239 4.71239 4.71239 
4.71239 4.71239 4.71239 4.60879 4.49914 4.3857 4.27128 4.15881 4.05096 
3.94976 3.85646 3.77161 4.81599 4.92564 5.03907 5.1535 5.26596 5.37381 
5.47502 5.56831 5.65317 4.60879 4.49914 4.3857 4.27128 4.15881 4.05096 
3.94976 3.85646 3.77161 4.81599 4.92564 5.03907 5.1535 5.26596 5.37381 
5.47502 5.56831 5.65317 1.5708 1.5708 1.5708 1.5708 1.5708 1.5708 
1.5708 1.5708 1.5708 1.6744 1.78405 1.89748 2.01191 2.12437 2.23222 
2.33343 2.42672 2.51157 1.4672 1.35755 1.24411 1.12969 1.01722 0.909371 
0.808166 0.714871 0.63002 1.6744 1.78405 1.89748 2.01191 2.12437 2.23222 
2.33343 2.42672 2.51157 1.4672 1.35755 1.24411 1.12969 1.01722 0.909371 
0.808166 0.714871 0.63002 3.60077 3.49669 3.38395 3.26458 3.14159 3.01861 
2.89924 2.78649 2.68241 5.82401 5.92808 6.04083 6.1602 6.28319 0.122983 
0.242354 0.355101 0.459179 6.05603 5.78856 5.97021 5.51259 5.60297 5.78856 
5.26596 5.26596 5.26596 5.26596 5.06749 5.0121 4.91556 4.71239 4.15881 
4.91556 4.83537 4.71239 4.50922 4.15881 3.63622 4.80045 4.71239 4.58941 
4.41268 4.15881 3.82181 3.45456 4.71239 4.62433 4.50922 4.35729 4.15881 
3.91219 3.63622 3.36875 6.01742 5.94343 5.82633 5.88092 5.76745 5.62798 
5.8278 5.71897 5.58911 5.43724 5.78235 5.67854 5.55757 5.41926 5.26596 
5.74316 5.64441 5.5315 5.40467 5.26596 5.11955 5.70914 5.61528 5.50962 
5.3926 5.26596 5.13292 4.99789 5.67937 5.59016 5.49102 5.38246 5.26596 
5.14407 5.02016 4.89798 5.56831 5.47502 5.47502 5.37381 5.37381 5.37381 
5.26596 5.26596 5.26596 5.26596 5.1535 5.1535 5.1535 5.1535 5.1535 
5.03907 5.03907 5.03907 5.03907 5.03907 5.03907 4.92564 4.92564 4.92564 
4.92564 4.92564 4.92564 4.92564 4.81599 4.81599 4.81599 4.81599 4.81599 
4.81599 4.81599 4.81599 4.60879 4.60879 4.49914 4.60879 4.49914 4.3857 
4.60879 4.49914 4.3857 4.27128 4.60879 4.49914 4.3857 4.27128 4.15881 
4.60879 4.49914 4.3857 4.27128 4.15881 4.05096 4.60879 4.49914 4.3857 
4.27128 4.15881 4.05096 3.94976 4.60879 4.49914 4.3857 4.27128 4.15881 
4.05096 3.94976 3.85646 4.5268 4.40462 4.42689 4.28071 4.29185 4.30523 
4.15881 4.15881 4.15881 4.15881 4.04232 4.03217 4.02011 4.00552 3.98753 
3.93376 3.91515 3.89328 3.86721 3.83566 3.7968 3.83461 3.8095 3.78037 
3.74624 3.70581 3.65733 3.59845 3.7454 3.71564 3.68161 3.64243 3.59698 
3.54386 3.48135 3.40735 3.56428 3.45246 3.52338 3.33203 3.40312 3.47739 
3.20576 3.27463 3.34802 3.42551 3.07742 3.14159 3.21128 3.28647 3.36688 
2.95116 3.00855 3.0719 3.14159 3.21784 3.3006 2.83072 2.88006 2.93517 
2.99672 3.06535 3.14159 3.22575 2.7189 2.7598 2.8058 2.85768 2.9163 
2.98259 3.05743 3.14159 3.56428 3.52338 3.45246 3.47739 3.40312 3.33203 
3.42551 3.34802 3.27463 3.20576 3.36688 3.28647 3.21128 3.14159 3.07742 
3.3006 3.21784 3.14159 3.0719 3.00855 2.95116 3.22575 3.14159 3.06535 
2.99672 2.93517 2.88006 2.83072 3.14159 3.05743 2.98259 2.9163 2.85768 
2.8058 2.7598 2.7189 4.5268 4.42689 4.40462 4.30523 4.29185 4.28071 
4.15881 4.15881 4.15881 4.15881 3.98753 4.00552 4.02011 4.03217 4.04232 
3.7968 3.83566 3.86721 3.89328 3.91515 3.93376 3.59845 3.65733 3.70581 
3.74624 3.78037 3.8095 3.83461 3.40735 3.48135 3.54386 3.59698 3.64243 
3.68161 3.71564 3.7454 4.71239 4.80045 4.62433 4.91556 4.71239 4.50922 
5.06749 4.83537 4.58941 4.35729 5.26596 5.0121 4.71239 4.41268 4.15881 
5.51259 5.26596 4.91556 4.50922 4.15881 3.91219 5.78856 5.60297 5.26596 
4.71239 4.15881 3.82181 3.63622 6.05603 5.97021 5.78856 5.26596 4.15881 
3.63622 3.45456 3.36875 0.227158 0.494626 0.312971 0.770593 0.680215 0.494626 
1.01722 1.01722 1.01722 1.01722 1.2157 1.27109 1.36763 1.5708 2.12437 
1.36763 1.44781 1.5708 1.77397 2.12437 2.64697 1.48273 1.5708 1.69378 
1.8705 2.12437 2.46138 2.82862 1.5708 1.65886 1.77397 1.9259 2.12437 
2.371 2.64697 2.91443 1.75639 1.87857 1.8563 2.00248 1.99133 1.97796 
2.12437 2.12437 2.12437 2.12437 2.24087 2.25101 2.26308 2.27767 2.29565 
2.34943 2.36803 2.38991 2.41597 2.44752 2.48639 2.44857 2.47368 2.50281 
2.53694 2.57738 2.62586 2.68474 2.53778 2.56754 2.60157 2.64076 2.68621 
2.73933 2.80184 2.87583 1.6744 1.6744 1.78405 1.6744 1.78405 1.89748 
1.6744 1.78405 1.89748 2.01191 1.6744 1.78405 1.89748 2.01191 2.12437 
1.6744 1.78405 1.89748 2.01191 2.12437 2.23222 1.6744 1.78405 1.89748 
2.01191 2.12437 2.23222 2.33343 1.6744 1.78405 1.89748 2.01191 2.12437 
2.23222 2.33343 2.42672 1.4672 1.35755 1.4672 1.24411 1.35755 1.4672 
1.12969 1.24411 1.35755 1.4672 1.01722 1.12969 1.24411 1.35755 1.4672 
0.909371 1.01722 1.12969 1.24411 1.35755 1.4672 0.808166 0.909371 1.01722 
1.12969 1.24411 1.35755 1.4672 0.714871 0.808166 0.909371 1.01722 1.12969 
1.24411 1.35755 1.4672 0.603812 0.57405 0.693022 0.540021 0.667908 0.792164 
0.500837 0.638778 0.773562 0.900726 0.455383 0.604649 0.751687 0.890581 1.01722 
0.402264 0.564217 0.725619 0.878514 1.01722 1.13912 0.339753 0.515737 0.694072 
0.863926 1.01722 1.15026 1.26302 0.265762 0.456853 0.655207 0.845941 1.01722 
1.16363 1.28529 1.38521 0.227158 0.312971 0.494626 0.494626 0.680215 0.770593 
1.01722 1.01722 1.01722 1.01722 2.12437 1.5708 1.36763 1.27109 1.2157 
2.64697 2.12437 1.77397 1.5708 1.44781 1.36763 2.82862 2.46138 2.12437 
1.8705 1.69378 1.5708 1.48273 2.91443 2.64697 2.371 2.12437 1.9259 
1.77397 1.65886 1.5708 1.75639 1.8563 1.87857 1.97796 1.99133 2.00248 
2.12437 2.12437 2.12437 2.12437 2.29565 2.27767 2.26308 2.25101 2.24087 
2.48639 2.44752 2.41597 2.38991 2.36803 2.34943 2.68474 2.62586 2.57738 
2.53694 2.50281 2.47368 2.44857 2.87583 2.80184 2.73933 2.68621 2.64076 
2.60157 2.56754 2.53778 5.86049 5.90139 5.97231 5.94739 6.02165 6.09275 
5.99927 6.07676 6.15015 6.21902 6.0579 6.13831 6.2135 0 0.0641696 
6.12418 6.20694 6.28319 0.069689 0.13304 0.190437 6.19903 0 0.0762451 
0.144876 0.206423 0.261531 0.310872 0 0.0841597 0.159004 0.225289 0.283913 
0.335793 0.381792 0.422692 5.86049 5.97231 5.90139 6.09275 6.02165 5.94739 
6.21902 6.15015 6.07676 5.99927 0.0641696 0 6.2135 6.13831 6.0579 
0.190437 0.13304 0.069689 6.28319 6.20694 6.12418 0.310872 0.261531 0.206423 
0.144876 0.0762451 6.28319 6.19903 0.422692 0.381792 0.335793 0.283913 0.225289 
0.159004 0.0841597 0 5.67937 5.70914 5.59016 5.74316 5.61528 5.49102 
5.78235 5.64441 5.50962 5.38246 5.8278 5.67854 5.5315 5.3926 5.26596 
5.88092 5.71897 5.55757 5.40467 5.26596 5.14407 5.94343 5.76745 5.58911 
5.41926 5.26596 5.13292 5.02016 6.01742 5.82633 5.62798 5.43724 5.26596 
5.11955 4.99789 4.89798 1.38521 1.28529 1.26302 1.16363 1.15026 1.13912 
1.01722 1.01722 1.01722 1.01722 0.845941 0.863926 0.878514 0.890581 0.900726 
0.655207 0.694072 0.725619 0.751687 0.773562 0.792164 0.456853 0.515737 0.564217 
0.604649 0.638778 0.667908 0.693022 0.265762 0.339753 0.402264 0.455383 0.500837 
0.540021 0.57405 0.603812 
Color_Map_Theta 1 1002 float
2.58802 2.58802 0.553574 0.553574 2.12437 1.01722 2.12437 1.01722 1.5708 
1.5708 1.5708 1.5708 2.68241 2.78649 2.89924 3.01861 3.14159 3.01861 
2.89924 2.78649 2.68241 2.61035 2.61791 2.60515 2.56958 2.51327 2.44184 
2.36202 2.27983 2.1997 2.61035 2.61791 2.60515 2.56958 2.51327 2.44184 
2.36202 2.27983 2.1997 2.50947 2.41899 2.31794 2.20864 2.0944 1.97902 
1.86631 1.75944 1.66056 2.50947 2.41899 2.31794 2.20864 2.0944 1.97902 
1.86631 1.75944 1.66056 2.61035 2.61791 2.60515 2.56958 2.51327 2.44184 
2.36202 2.27983 2.1997 2.61035 2.61791 2.60515 2.56958 2.51327 2.44184 
2.36202 2.27983 2.1997 2.50947 2.41899 2.31794 2.20864 2.0944 1.97902 
1.86631 1.75944 1.66056 2.50947 2.41899 2.31794 2.20864 2.0944 1.97902 
1.86631 1.75944 1.66056 0.459179 0.355101 0.242354 0.122983 0 0.122983 
0.242354 0.355101 0.459179 0.531246 0.523681 0.536438 0.57201 0.628319 0.699757 
0.779574 0.86176 0.941896 0.531246 0.523681 0.536438 0.57201 0.628319 0.699757 
0.779574 0.86176 0.941896 0.632123 0.7226 0.823657 0.932948 1.0472 1.16257 
1.27528 1.38216 1.48103 0.632123 0.7226 0.823657 0.932948 1.0472 1.16257 
1.27528 1.38216 1.48103 0.531246 0.523681 0.536438 0.57201 0.628319 0.699757 
0.779574 0.86176 0.941896 0.531246 0.523681 0.536438 0.57201 0.628319 0.699757 
0.779574 0.86176 0.941896 0.632123 0.7226 0.823657 0.932948 1.0472 1.16257 
1.27528 1.38216 1.48103 0.632123 0.7226 0.823657 0.932948 1.0472 1.16257 
1.27528 1.38216 1.48103 2.02998 1.9259 1.81315 1.69378 1.5708 1.44781 
1.32844 1.2157 1.11162 2.0928 2.05283 2.00422 1.94767 1.88496 1.81867 
1.75177 1.68695 1.62623 2.0928 2.05283 2.00422 1.94767 1.88496 1.81867 
1.75177 1.68695 1.62623 1.0488 1.08876 1.13737 1.19392 1.25664 1.32292 
1.38982 1.45464 1.51537 1.0488 1.08876 1.13737 1.19392 1.25664 1.32292 
1.38982 1.45464 1.51537 2.02998 1.9259 1.81315 1.69378 1.5708 1.44781 
1.32844 1.2157 1.11162 2.0928 2.05283 2.00422 1.94767 1.88496 1.81867 
1.75177 1.68695 1.62623 2.0928 2.05283 2.00422 1.94767 1.88496 1.81867 
1.75177 1.68695 1.62623 1.0488 1.08876 1.13737 1.19392 1.25664 1.32292 
1.38982 1.45464 1.51537 1.0488 1.08876 1.13737 1.19392 1.25664 1.32292 
1.38982 1.45464 1.51537 1.5708 1.5708 1.5708 1.5708 1.5708 1.5708 
1.5708 1.5708 1.5708 1.5708 1.5708 1.5708 1.5708 1.5708 1.5708 
1.5708 1.5708 1.5708 2.70908 2.71362 2.81592 2.68886 2.81002 2.92597 
2.6349 2.76254 2.89233 3.01997 2.55881 2.68262 2.80854 2.92834 3.01997 
2.47007 2.58462 2.70048 2.80854 2.89233 2.92597 2.37702 2.48017 2.58462 
2.68262 2.76254 2.81002 2.81592 2.28567 2.37702 2.47007 2.55881 2.6349 
2.68886 2.71362 2.70908 2.52097 2.4195 2.51718 2.30791 2.40503 2.49426 
2.18928 2.28408 2.3734 2.45144 2.06758 2.15805 2.24572 2.32523 2.39165 
1.94707 2.03138 2.11543 2.19453 2.26401 2.32035 1.83164 1.90847 1.98711 
2.06376 2.13422 2.1949 2.24359 1.72413 1.79288 1.86489 1.93728 2.00658 
2.06938 2.12312 2.16654 1.5708 1.50988 1.63171 1.44492 1.5708 1.69667 
1.37826 1.5059 1.63569 1.76333 1.31281 1.43962 1.5708 1.70197 1.82878 
1.25155 1.37501 1.50478 1.63681 1.76659 1.89004 1.19686 1.31493 1.44074 
1.5708 1.70086 1.82666 1.94473 1.15011 1.26149 1.38136 1.50697 1.63462 
1.76024 1.88011 1.99148 1.99148 1.88011 1.94473 1.76024 1.82666 1.89004 
1.63462 1.70086 1.76659 1.82878 1.50697 1.5708 1.63681 1.70197 1.76333 
1.38136 1.44074 1.50478 1.5708 1.63569 1.69667 1.26149 1.31493 1.37501 
1.43962 1.5059 1.5708 1.63171 1.15011 1.19686 1.25155 1.31281 1.37826 
1.44492 1.50988 1.5708 2.16654 2.12312 2.24359 2.06938 2.1949 2.32035 
2.00658 2.13422 2.26401 2.39165 1.93728 2.06376 2.19453 2.32523 2.45144 
1.86489 1.98711 2.11543 2.24572 2.3734 2.49426 1.79288 1.90847 2.03138 
2.15805 2.28408 2.40503 2.51718 1.72413 1.83164 1.94707 2.06758 2.18928 
2.30791 2.4195 2.52097 1.66533 1.66946 1.76911 1.67254 1.777 1.88041 
1.67418 1.78222 1.89102 1.99634 1.67418 1.78405 1.89674 2.00785 2.11299 
1.67254 1.78222 1.89674 2.01191 2.12307 2.22608 1.66946 1.777 1.89102 
2.00785 2.12307 2.23222 2.33166 1.66533 1.76911 1.88041 1.99634 2.11299 
2.22608 2.33166 2.42672 1.47626 1.37249 1.47213 1.26118 1.36459 1.46906 
1.14526 1.25058 1.35938 1.46741 1.0286 1.13374 1.24485 1.35755 1.46741 
0.915514 1.01852 1.12969 1.24485 1.35938 1.46906 0.809937 0.909371 1.01852 
1.13374 1.25058 1.36459 1.47213 0.714871 0.809937 0.915514 1.0286 1.14526 
1.26118 1.37249 1.47626 0.975055 0.898002 1.01847 0.821245 0.946693 1.07221 
0.749941 0.877585 1.00737 1.13501 0.690152 0.816367 0.94706 1.07784 1.20431 
0.647337 0.768195 0.895868 1.02616 1.15448 1.2767 0.624416 0.736561 0.857515 
0.983547 1.11021 1.23313 1.34871 0.620619 0.722093 0.833684 0.952313 1.07402 
1.19452 1.30996 1.41746 0.855925 0.764569 0.764569 0.671524 0.661425 0.671524 
0.582786 0.556971 0.556971 0.582786 0.506696 0.458968 0.441109 0.458968 0.506696 
0.45273 0.379052 0.333054 0.333054 0.379052 0.45273 0.427969 0.331576 0.249267 
0.21325 0.249267 0.331576 0.427969 0.432512 0.325669 0.215619 0.121622 0.121622 
0.215619 0.325669 0.432512 0.432512 0.427969 0.325669 0.45273 0.331576 0.215619 
0.506696 0.379052 0.249267 0.121622 0.582786 0.458968 0.333054 0.21325 0.121622 
0.671524 0.556971 0.441109 0.333054 0.249267 0.215619 0.764569 0.661425 0.556971 
0.458968 0.379052 0.331576 0.325669 0.855925 0.764569 0.671524 0.582786 0.506696 
0.45273 0.427969 0.432512 0.975055 1.01847 0.898002 1.07221 0.946693 0.821245 
1.13501 1.00737 0.877585 0.749941 1.20431 1.07784 0.94706 0.816367 0.690152 
1.2767 1.15448 1.02616 0.895868 0.768195 0.647337 1.34871 1.23313 1.11021 
0.983547 0.857515 0.736561 0.624416 1.41746 1.30996 1.19452 1.07402 0.952313 
0.833684 0.722093 0.620619 1.15011 1.26149 1.19686 1.38136 1.31493 1.25155 
1.50697 1.44074 1.37501 1.31281 1.63462 1.5708 1.50478 1.43962 1.37826 
1.76024 1.70086 1.63681 1.5708 1.5059 1.44492 1.88011 1.82666 1.76659 
1.70197 1.63569 1.5708 1.50988 1.99148 1.94473 1.89004 1.82878 1.76333 
1.69667 1.63171 1.5708 1.15011 1.19686 1.26149 1.25155 1.31493 1.38136 
1.31281 1.37501 1.44074 1.50697 1.37826 1.43962 1.50478 1.5708 1.63462 
1.44492 1.5059 1.5708 1.63681 1.70086 1.76024 1.50988 1.5708 1.63569 
1.70197 1.76659 1.82666 1.88011 1.5708 1.63171 1.69667 1.76333 1.82878 
1.89004 1.94473 1.99148 1.72413 1.83164 1.79288 1.94707 1.90847 1.86489 
2.06758 2.03138 1.98711 1.93728 2.18928 2.15805 2.11543 2.06376 2.00658 
2.30791 2.28408 2.24572 2.19453 2.13422 2.06938 2.4195 2.40503 2.3734 
2.32523 2.26401 2.1949 2.12312 2.52097 2.51718 2.49426 2.45144 2.39165 
2.32035 2.24359 2.16654 2.70908 2.81592 2.71362 2.92597 2.81002 2.68886 
3.01997 2.89233 2.76254 2.6349 3.01997 2.92834 2.80854 2.68262 2.55881 
2.92597 2.89233 2.80854 2.70048 2.58462 2.47007 2.81592 2.81002 2.76254 
2.68262 2.58462 2.48017 2.37702 2.70908 2.71362 2.68886 2.6349 2.55881 
2.47007 2.37702 2.28567 2.16654 2.24359 2.12312 2.32035 2.1949 2.06938 
2.39165 2.26401 2.13422 2.00658 2.45144 2.32523 2.19453 2.06376 1.93728 
2.49426 2.3734 2.24572 2.11543 1.98711 1.86489 2.51718 2.40503 2.28408 
2.15805 2.03138 1.90847 1.79288 2.52097 2.4195 2.30791 2.18928 2.06758 
1.94707 1.83164 1.72413 1.66533 1.76911 1.66946 1.88041 1.777 1.67254 
1.99634 1.89102 1.78222 1.67418 2.11299 2.00785 1.89674 1.78405 1.67418 
2.22608 2.12307 2.01191 1.89674 1.78222 1.67254 2.33166 2.23222 2.12307 
2.00785 1.89102 1.777 1.66946 2.42672 2.33166 2.22608 2.11299 1.99634 
1.88041 1.76911 1.66533 1.47626 1.47213 1.37249 1.46906 1.36459 1.26118 
1.46741 1.35938 1.25058 1.14526 1.46741 1.35755 1.24485 1.13374 1.0286 
1.46906 1.35938 1.24485 1.12969 1.01852 0.915514 1.47213 1.36459 1.25058 
1.13374 1.01852 0.909371 0.809937 1.47626 1.37249 1.26118 1.14526 1.0286 
0.915514 0.809937 0.714871 1.41746 1.30996 1.34871 1.19452 1.23313 1.2767 
1.07402 1.11021 1.15448 1.20431 0.952313 0.983547 1.02616 1.07784 1.13501 
0.833684 0.857515 0.895868 0.94706 1.00737 1.07221 0.722093 0.736561 0.768195 
0.816367 0.877585 0.946693 1.01847 0.620619 0.624416 0.647337 0.690152 0.749941 
0.821245 0.898002 0.975055 0.975055 0.898002 1.01847 0.821245 0.946693 1.07221 
0.749941 0.877585 1.00737 1.13501 0.690152 0.816367 0.94706 1.07784 1.20431 
0.647337 0.768195 0.895868 1.02616 1.15448 1.2767 0.624416 0.736561 0.857515 
0.983547 1.11021 1.23313 1.34871 0.620619 0.722093 0.833684 0.952313 1.07402 
1.19452 1.30996 1.41746 
