<?xml version="1.0"?>
<VTKFile type="PolyData" version="0.1" byte_order="LittleEndian" header_type="UInt32" compressor="vtkZLibDataCompressor">
  <PolyData>
    <Piece NumberOfPoints="25" NumberOfVerts="0" NumberOfLines="0" NumberOfStrips="0" NumberOfPolys="16">
      <PointData Scalars="spokeLength" Vectors="spokeDirection">
        <DataArray type="Float64" Name="spokeDirection" NumberOfComponents="3" format="ascii" RangeMin="1" RangeMax="1">
          0.40289486524 -0.48858966289 -0.77392239202 0.80556578295 -0.34901213343 -0.47880507522
          0.79960891748 -0.54406549893 -0.25420132172 0.77344539197 -0.49904067787 -0.39082045427
          0.47373970242 -0.58937073031 -0.65437973426 0.16219525493 -0.53369339517 -0.82997834865
          0.39820975213 -0.65019646203 -0.64704988531 0.4338942514 -0.65098731525 -0.62285736247
          0.3680833498 -0.64640783307 -0.66833491675 0.13636255347 -0.55090538985 -0.82335199365
          -0.11339104066 -0.39705084547 -0.91076511682 0.08882327477 -0.73113234301 -0.67642880103
          0.20427905387 -0.66647767422 -0.71699203477 0.16857344863 -0.60180158562 -0.78065219141
          -0.069828495408 -0.76214520821 -0.64362928991 -0.22317714096 -0.4464492874 -0.86653043659
          -0.18033420752 -0.68536149472 -0.70552051363 -0.071273592049 -0.67081772676 -0.73818944218
          -0.044895784262 -0.64264875911 -0.76484439004 -0.41642820304 -0.51894198193 -0.74651642387
          -0.43795868117 -0.54186770652 -0.71733644981 -0.68427276754 -0.4897219387 -0.54031768651
          -0.4772492017 -0.64925888571 -0.59219599695 -0.62225048985 -0.49126021186 -0.6094815273
          -0.58696382923 -0.47971456937 -0.65218662598
        </DataArray>
        <DataArray type="Float64" Name="spokeLength" format="ascii" RangeMin="1.6052038015" RangeMax="4.3259407507">
          3.0114160164 3.482161379 2.8527952717 2.1806568086 2.0449888479 3.4007605746
          3.7164815051 2.7822380086 2.0663942743 1.8207070341 3.8448359761 4.3259407507
          3.3027114201 2.6326531809 1.7234913773 2.6911682983 3.7154933352 3.011686846
          2.4714220787 1.6052038015 2.741039197 2.6312230815 1.8792249992 1.8883257228
          1.8344499698
        </DataArray>
      </PointData>
      <CellData>
      </CellData>
      <Points>
        <DataArray type="Float64" Name="Points" NumberOfComponents="3" format="ascii" RangeMin="165.15502628" RangeMax="186.48511329">
          -113.93472666 -107.94511623 54.83132273 -115.34963014 -111.67311715 57.060257236
          -114.96140029 -115.75681732 60.3515582 -114.48418291 -119.92289071 64.350721046
          -113.86045816 -123.77756101 67.822142508 -115.14235462 -105.90261023 52.94391395
          -116.61001625 -111.76661805 57.262256264 -116.68260561 -115.78046211 60.326836551
          -116.5208442 -119.78408665 63.870018356 -114.56907998 -125.78196607 69.532722617
          -117.01392679 -105.1388006 52.090983575 -117.82904144 -111.90729995 57.51791465
          -118.25422317 -115.80793658 60.457754603 -118.20546026 -119.81049587 63.513840906
          -116.9317592 -126.11854854 69.536874242 -118.28446403 -106.0208074 52.857384383
          -119.00444067 -111.87991119 57.636793786 -119.89899941 -115.82676652 60.713200235
          -119.97520554 -120.09373831 63.545341557 -119.35154452 -125.70781392 68.771010025
          -119.4353726 -108.17479136 54.701643947 -120.21280058 -111.91177155 57.700393062
          -121.88184266 -115.86939823 61.037379123 -122.37327966 -120.36333492 63.879272823
          -121.0642764 -123.57907384 66.335611498
        </DataArray>
      </Points>
      <Verts>
        <DataArray type="Int64" Name="connectivity" format="ascii" RangeMin="0" RangeMax="15">
        </DataArray>
        <DataArray type="Int64" Name="offsets" format="ascii" RangeMin="17" RangeMax="17">
        </DataArray>
      </Verts>
      <Lines>
        <DataArray type="Int64" Name="connectivity" format="ascii" RangeMin="0" RangeMax="15">
        </DataArray>
        <DataArray type="Int64" Name="offsets" format="ascii" RangeMin="17" RangeMax="17">
        </DataArray>
      </Lines>
      <Strips>
        <DataArray type="Int64" Name="connectivity" format="ascii" RangeMin="0" RangeMax="15">
        </DataArray>
        <DataArray type="Int64" Name="offsets" format="ascii" RangeMin="17" RangeMax="17">
        </DataArray>
      </Strips>
      <Polys>
        <DataArray type="Int64" Name="connectivity" format="ascii" RangeMin="0" RangeMax="15">
          0 5 6 1 1 6
          7 2 2 7 8 3
          3 8 9 4 5 10
          11 6 6 11 12 7
          7 12 13 8 8 13
          14 9 10 15 16 11
          11 16 17 12 12 17
          18 13 13 18 19 14
          15 20 21 16 16 21
          22 17 17 22 23 18
          18 23 24 19
        </DataArray>
        <DataArray type="Int64" Name="offsets" format="ascii" RangeMin="17" RangeMax="17">
          4 8 12 16 20 24
          28 32 36 40 44 48
          52 56 60 64
        </DataArray>
      </Polys>
    </Piece>
  </PolyData>
</VTKFile>
