<?xml version="1.0"?>
<VTKFile type="PolyData" version="0.1" byte_order="LittleEndian" header_type="UInt32" compressor="vtkZLibDataCompressor">
  <PolyData>
    <Piece NumberOfPoints="25" NumberOfVerts="0" NumberOfLines="0" NumberOfStrips="0" NumberOfPolys="16">
      <PointData Scalars="spokeLength" Vectors="spokeDirection">
        <DataArray type="Float64" Name="spokeDirection" NumberOfComponents="3" format="ascii" RangeMin="1" RangeMax="1">
          0.54347808379 0.33813744757 0.7683063445 0.58234609962 0.578662026 0.57098448309
          0.54218448808 0.57043073409 0.61696414684 0.61617766009 0.49136859658 0.61553390931
          0.40508294949 0.4704492349 0.78395492308 0.4790430022 0.53772418694 0.6938086918
          0.31503446259 0.6016584364 0.73400300632 -0.0070425485739 0.75375529915 0.6571174564
          0.23891261213 0.60624894685 0.75854003072 0.29115536968 0.49937600121 0.81599764713
          -0.065952945912 0.64153335765 0.76425464339 0.09325699084 0.67313763105 0.73361356539
          0.029300319932 0.67920055964 0.73336763703 0.017378118766 0.61431986487 0.78886570759
          0.023403898169 0.40134951925 0.91562591758 -0.42554371012 0.70560435326 0.56659954769
          -0.20965390531 0.64566503577 0.73427644765 -0.096643249338 0.7013039029 0.70628104756
          -0.17271806207 0.57062776267 0.80284022539 -0.34306276046 0.58360246541 0.736013658
          -0.54146926745 0.61983676725 0.56799068158 -0.58699326333 0.50430485396 0.63333681646
          -0.50070542105 0.54667777431 0.67114640162 -0.56888202335 0.53453754279 0.62501428692
          -0.61279161224 0.41509001088 0.67244830495
        </DataArray>
        <DataArray type="Float64" Name="spokeLength" format="ascii" RangeMin="1.2299286272" RangeMax="5.1907541158">
          3.7446559534 2.139715263 1.2299286272 1.4401901054 2.4560692956 4.4540092702
          4.5425709612 2.2682668875 2.5816049122 2.6433363577 3.1899835115 5.1907541158
          3.4576702864 2.4160720974 2.7074141476 2.7096174341 4.7520761496 3.9787937517
          2.299811173 2.5908566847 2.7803401801 2.6127995972 2.7217288658 2.398723463
          2.2499350875
        </DataArray>
      </PointData>
      <CellData>
      </CellData>
      <Points>
        <DataArray type="Float64" Name="Points" NumberOfComponents="3" format="ascii" RangeMin="165.15502628" RangeMax="186.48511329">
          -113.93472666 -107.94511623 54.83132273 -115.34963014 -111.67311715 57.060257236
          -114.96140029 -115.75681732 60.3515582 -114.48418291 -119.92289071 64.350721046
          -113.86045816 -123.77756101 67.822142508 -115.14235462 -105.90261023 52.94391395
          -116.61001625 -111.76661805 57.262256264 -116.68260561 -115.78046211 60.326836551
          -116.5208442 -119.78408665 63.870018356 -114.56907998 -125.78196607 69.532722617
          -117.01392679 -105.1388006 52.090983575 -117.82904144 -111.90729995 57.51791465
          -118.25422317 -115.80793658 60.457754603 -118.20546026 -119.81049587 63.513840906
          -116.9317592 -126.11854854 69.536874242 -118.28446403 -106.0208074 52.857384383
          -119.00444067 -111.87991119 57.636793786 -119.89899941 -115.82676652 60.713200235
          -119.97520554 -120.09373831 63.545341557 -119.35154452 -125.70781392 68.771010025
          -119.4353726 -108.17479136 54.701643947 -120.21280058 -111.91177155 57.700393062
          -121.88184266 -115.86939823 61.037379123 -122.37327966 -120.36333492 63.879272823
          -121.0642764 -123.57907384 66.335611498
        </DataArray>
      </Points>
      <Verts>
        <DataArray type="Int64" Name="connectivity" format="ascii" RangeMin="0" RangeMax="15">
        </DataArray>
        <DataArray type="Int64" Name="offsets" format="ascii" RangeMin="17" RangeMax="17">
        </DataArray>
      </Verts>
      <Lines>
        <DataArray type="Int64" Name="connectivity" format="ascii" RangeMin="0" RangeMax="15">
        </DataArray>
        <DataArray type="Int64" Name="offsets" format="ascii" RangeMin="17" RangeMax="17">
        </DataArray>
      </Lines>
      <Strips>
        <DataArray type="Int64" Name="connectivity" format="ascii" RangeMin="0" RangeMax="15">
        </DataArray>
        <DataArray type="Int64" Name="offsets" format="ascii" RangeMin="17" RangeMax="17">
        </DataArray>
      </Strips>
      <Polys>
        <DataArray type="Int64" Name="connectivity" format="ascii" RangeMin="0" RangeMax="15">
          0 5 6 1 1 6
          7 2 2 7 8 3
          3 8 9 4 5 10
          11 6 6 11 12 7
          7 12 13 8 8 13
          14 9 10 15 16 11
          11 16 17 12 12 17
          18 13 13 18 19 14
          15 20 21 16 16 21
          22 17 17 22 23 18
          18 23 24 19
        </DataArray>
        <DataArray type="Int64" Name="offsets" format="ascii" RangeMin="17" RangeMax="17">
          4 8 12 16 20 24
          28 32 36 40 44 48
          52 56 60 64
        </DataArray>
      </Polys>
    </Piece>
  </PolyData>
</VTKFile>
