<?xml version="1.0"?>
<VTKFile type="PolyData" version="0.1" byte_order="LittleEndian" header_type="UInt32" compressor="vtkZLibDataCompressor">
  <PolyData>
    <Piece NumberOfPoints="25" NumberOfVerts="0" NumberOfLines="0" NumberOfStrips="0" NumberOfPolys="16">
      <PointData Scalars="spokeLength" Vectors="spokeDirection">
        <DataArray type="Float64" Name="spokeDirection" NumberOfComponents="3" format="ascii" RangeMin="0.9999993343" RangeMax="1.0000007013">
          0.651972 0.633317 0.416944 0.756215 0.490138 0.433479
          0.783591 0.389231 0.484236 0.752798 0.322165 0.574024
          0.64485 0.283171 0.709917 0.409911 0.805638 0.427691
          0.280678 0.673895 0.683436 0.287052 0.611267 0.737532
          0.2781 0.547156 0.789481 0.399 0.269189 0.876548
          -0.010246 0.900733 0.434252 -0.017068 0.697806 0.716083
          -0.018296 0.641827 0.766632 -0.01942 0.582195 0.812817
          -0.023097 0.268949 0.962877 -0.429644 0.805822 0.407501
          -0.312912 0.674025 0.669162 -0.321906 0.6114 0.722887
          -0.315489 0.547286 0.775206 -0.440556 0.269372 0.856358
          -0.670984 0.633605 0.385129 -0.775964 0.490472 0.396633
          -0.805792 0.389578 0.446015 -0.77938 0.3225 0.537178
          -0.678106 0.283459 0.678102
        </DataArray>
        <DataArray type="Float64" Name="spokeLength" format="ascii" RangeMin="2.70801" RangeMax="5.661005">
          3.455052 3.897814 4.067119 3.897814 3.455052 2.946492
          5.030535 5.307598 5.030535 2.946492 2.70801 5.366305
          5.661005 5.366305 2.70801 2.946492 5.030535 5.307598
          5.030535 2.946492 3.455052 3.897814 4.067119 3.897814
          3.455052
        </DataArray>
      </PointData>
      <CellData>
      </CellData>
      <Points>
        <DataArray type="Float64" Name="Points" NumberOfComponents="3" format="ascii" RangeMin="159.61868833" RangeMax="192.49696966">
          -113.117731 -103.6292 51.658858 -112.190505 -109.141068 56.295541
          -111.957778 -115.642571 61.744175 -112.454981 -122.143914 67.175256
          -113.60642 -127.655328 71.76195 -114.598295 -99.9461 48.54002
          -114.408774 -109.310985 56.384856 -114.355064 -115.642047 61.686524
          -114.666318 -121.97303 66.979416 -115.236797 -131.337749 74.805976
          -116.406794 -98.652486 47.413841 -116.627043 -109.480903 56.474172
          -116.752349 -115.641524 61.628874 -116.877656 -121.802145 66.783576
          -117.097904 -132.630562 75.843907 -118.267901 -99.945299 48.451772
          -118.83838 -109.310018 56.278332 -119.149635 -115.641001 61.571223
          -119.095925 -121.972063 66.872892 -118.906404 -131.336948 74.717728
          -119.898279 -103.62772 51.495798 -121.049718 -109.139134 56.082492
          -121.546921 -115.640477 61.513573 -121.314194 -122.14198 66.962207
          -120.386968 -127.653848 71.59889
        </DataArray>
      </Points>
      <Verts>
        <DataArray type="Int64" Name="connectivity" format="ascii" RangeMin="0" RangeMax="15">
        </DataArray>
        <DataArray type="Int64" Name="offsets" format="ascii" RangeMin="17" RangeMax="17">
        </DataArray>
      </Verts>
      <Lines>
        <DataArray type="Int64" Name="connectivity" format="ascii" RangeMin="0" RangeMax="15">
        </DataArray>
        <DataArray type="Int64" Name="offsets" format="ascii" RangeMin="17" RangeMax="17">
        </DataArray>
      </Lines>
      <Strips>
        <DataArray type="Int64" Name="connectivity" format="ascii" RangeMin="0" RangeMax="15">
        </DataArray>
        <DataArray type="Int64" Name="offsets" format="ascii" RangeMin="17" RangeMax="17">
        </DataArray>
      </Strips>
      <Polys>
        <DataArray type="Int64" Name="connectivity" format="ascii" RangeMin="0" RangeMax="15">
          0 5 6 1 1 6
          7 2 2 7 8 3
          3 8 9 4 5 10
          11 6 6 11 12 7
          7 12 13 8 8 13
          14 9 10 15 16 11
          11 16 17 12 12 17
          18 13 13 18 19 14
          15 20 21 16 16 21
          22 17 17 22 23 18
          18 23 24 19
        </DataArray>
        <DataArray type="Int64" Name="offsets" format="ascii" RangeMin="17" RangeMax="17">
          4 8 12 16 20 24
          28 32 36 40 44 48
          52 56 60 64
        </DataArray>
      </Polys>
    </Piece>
  </PolyData>
</VTKFile>
